# vtk DataFile Version 3.0
Gray-Scott Simulation Output
ASCII
DATASET STRUCTURED_POINTS
DIMENSIONS 256 256 1
SPACING 1.0 1.0 1.0
ORIGIN 0 0 0
POINT_DATA 65536
SCALARS u double
LOOKUP_TABLE default
0 0 0 0 0 0 0 0 0 0 0 0 0 0 0 0 0 0 0 0 0 0 0 0 0 0 0 0 0 0 0 0 0 0 0 0 0 0 0 0 0 0 0 0 0 0 0 0 0 0 0 0 0 0 0 0 0 0 0 0 0 0 0 0 0 0 0 0 0 0 0 0 0 0 0 0 0 0 0 0 0 0 0 0 0 0 0 0 0 0 0 0 0 0 0 0 0 0 0 0 0 0 0 0 0 0 0 0 0 0 0 0 0 0 0 0 0 0 0 0 0 0 0 0 0 0 0 0 0 0 0 0 0 0 0 0 0 0 0 0 0 0 0 0 0 0 0 0 0 0 0 0 0 0 0 0 0 0 0 0 0 0 0 0 0 0 0 0 0 0 0 0 0 0 0 0 0 0 0 0 0 0 0 0 0 0 0 0 0 0 0 0 0 0 0 0 0 0 0 0 0 0 0 0 0 0 0 0 0 0 0 0 0 0 0 0 0 0 0 0 0 0 0 0 0 0 0 0 0 0 0 0 0 0 0 0 0 0 0 0 0 0 0 0 0 0 0 0 0 0 0 0 0 0 0 0 
0 1.78929e-144 2.09901e-143 2.41963e-142 2.75987e-141 3.11468e-140 3.47758e-139 3.84093e-138 4.1961e-137 4.53375e-136 4.84422e-135 5.11795e-134 5.34595e-133 5.52026e-132 5.63439e-131 5.68375e-130 5.6659e-129 5.58077e-128 5.43067e-127 5.22023e-126 4.95612e-125 4.64677e-124 4.30185e-123 3.93179e-122 3.54725e-121 3.15858e-120 2.7754e-119 2.40613e-118 2.05781e-117 1.73583e-116 1.44394e-115 1.18429e-114 9.57534e-114 7.63052e-113 5.99206e-112 4.6359e-111 3.53297e-110 2.65158e-109 1.95945e-108 1.42539e-107 1.02049e-106 7.18872e-106 4.98154e-105 3.39498e-104 2.27489e-103 1.49838e-102 9.69854e-102 6.16723e-101 3.85169e-100 2.36189e-99 1.42163e-98 8.39641e-98 4.86451e-97 2.76363e-96 1.53909e-95 8.39913e-95 4.48986e-94 2.35013e-93 1.20404e-92 6.03529e-92 2.95857e-91 1.41775e-90 6.63819e-90 3.03551e-89 1.35496e-88 5.90091e-88 2.50596e-87 1.03718e-86 4.18132e-86 1.64094e-85 6.26505e-85 2.32559e-84 8.38745e-84 2.93708e-83 9.97887e-83 3.28704e-82 1.04894e-81 3.24027e-81 9.68127e-81 2.79537e-80 7.79334e-80 2.09601e-79 5.43315e-79 1.3561e-78 3.25609e-78 7.51364e-78 1.6647e-77 3.53784e-77 7.20532e-77 1.40505e-76 2.62113e-76 4.6743e-76 7.96341e-76 1.29546e-75 2.01176e-75 2.98225e-75 4.2216e-75 5.71094e-75 7.39272e-75 9.17522e-75 1.09477e-74 1.26024e-74 1.40569e-74 1.52687e-74 1.62366e-74 1.69915e-74 1.7579e-74 1.80446e-74 1.84248e-74 1.8746e-74 1.90284e-74 1.92893e-74 1.9542e-74 1.97909e-74 2.0025e-74 2.02139e-74 2.03088e-74 2.02492e-74 1.99754e-74 1.94426e-74 1.86356e-74 1.75799e-74 1.63468e-74 1.50486e-74 1.38238e-74 1.28141e-74 1.21374e-74 1.18647e-74 1.20069e-74 1.25152e-74 1.32941e-74 1.42243e-74 1.51864e-74 1.60825e-74 1.68482e-74 1.74563e-74 1.791e-74 1.82311e-74 1.84469e-74 1.85792e-74 1.86398e-74 1.86314e-74 1.85537e-74 1.84098e-74 1.8211e-74 1.79782e-74 1.77384e-74 1.75185e-74 1.7339e-74 1.72096e-74 1.71286e-74 1.70863e-74 1.70709e-74 1.70751e-74 1.71012e-74 1.71625e-74 1.72798e-74 1.74743e-74 1.77588e-74 1.81293e-74 1.8562e-74 1.90156e-74 1.94413e-74 1.97969e-74 2.00609e-74 2.02428e-74 2.03832e-74 2.05437e-74 2.07878e-74 2.11565e-74 2.16493e-74 2.22148e-74 2.27588e-74 2.31664e-74 2.33341e-74 2.32006e-74 2.2766e-74 2.20931e-74 2.12911e-74 2.04871e-74 1.9796e-74 1.92963e-74 1.90179e-74 1.89411e-74 1.90042e-74 1.91165e-74 1.91739e-74 1.90773e-74 1.875e-74 1.81534e-74 1.72945e-74 1.62227e-74 1.50156e-74 1.37574e-74 1.25171e-74 1.13338e-74 1.02126e-74 9.13386e-75 8.06865e-75 6.99645e-75 5.91666e-75 4.85112e-75 3.83764e-75 2.91829e-75 2.12757e-75 1.48444e-75 9.90175e-76 6.31118e-76 3.84343e-76 2.23682e-76 1.24462e-76 6.62515e-77 3.37617e-77 1.64842e-77 7.71798e-78 3.4683e-78 1.49729e-78 6.2154e-79 2.48319e-79 9.55706e-80 3.54653e-80 1.27008e-80 4.39322e-81 1.46901e-81 4.75237e-82 1.48863e-82 4.51842e-83 1.32995e-83 3.79876e-84 1.05369e-84 2.8401e-85 7.44375e-86 1.89826e-86 4.71287e-87 1.13982e-87 2.68688e-88 6.17673e-89 1.38546e-89 3.03367e-90 6.4878e-91 1.35576e-91 2.7696e-92 5.53342e-93 1.08167e-93 2.06964e-94 3.87763e-95 7.11663e-96 1.2799e-96 2.25647e-97 3.90105e-98 6.61572e-99 1.10092e-99 1.79824e-100 2.88245e-101 4.43595e-102 0 
0 2.0976e-143 2.45962e-142 2.83407e-141 3.23117e-140 3.64497e-139 4.06788e-138 4.49094e-137 4.90408e-136 5.29639e-135 5.65664e-134 5.9737e-133 6.23713e-132 6.43772e-131 6.568e-130 6.62271e-129 6.59911e-128 6.49719e-127 6.31977e-126 6.0723e-125 5.76267e-124 5.40071e-123 4.99773e-122 4.56591e-121 4.11764e-120 3.66496e-119 3.21902e-118 2.78958e-117 2.38477e-116 2.01082e-115 1.67202e-114 1.3708e-113 1.10789e-112 8.82514e-112 6.9274e-111 5.35743e-110 4.08124e-109 3.06187e-108 2.26176e-107 1.64467e-106 1.17702e-105 8.28825e-105 5.74129e-104 3.91128e-103 2.61987e-102 1.72496e-101 1.1161e-100 7.09459e-100 4.42924e-99 2.71508e-98 1.63363e-97 9.64506e-97 5.58596e-96 3.17239e-95 1.76612e-94 9.63479e-94 5.14865e-93 2.69406e-92 1.37978e-91 6.91396e-91 3.3882e-90 1.62311e-89 7.59735e-89 3.47303e-88 1.54979e-87 6.74732e-87 2.86456e-86 1.18525e-85 4.77689e-85 1.87414e-84 7.15342e-84 2.65463e-83 9.57164e-83 3.35088e-82 1.13819e-81 3.74827e-81 1.19584e-80 3.69318e-80 1.1032e-79 3.18468e-79 8.87681e-79 2.38692e-78 6.18601e-78 1.54371e-77 3.70589e-77 8.55012e-77 1.89403e-76 4.02459e-76 8.19546e-76 1.59791e-75 2.98054e-75 5.31464e-75 9.05339e-75 1.47264e-74 2.28672e-74 3.38962e-74 4.798e-74 6.49042e-74 8.40149e-74 1.0427e-73 1.24412e-73 1.43216e-73 1.59746e-73 1.73517e-73 1.84517e-73 1.93094e-73 1.99768e-73 2.05057e-73 2.09374e-73 2.13021e-73 2.1623e-73 2.19194e-73 2.22065e-73 2.24893e-73 2.27554e-73 2.297e-73 2.30777e-73 2.30101e-73 2.26992e-73 2.20943e-73 2.11781e-73 1.99797e-73 1.85799e-73 1.71063e-73 1.57162e-73 1.45703e-73 1.38026e-73 1.34935e-73 1.36553e-73 1.42327e-73 1.51174e-73 1.61737e-73 1.72662e-73 1.82836e-73 1.91531e-73 1.98436e-73 2.03586e-73 2.07231e-73 2.09679e-73 2.11177e-73 2.1186e-73 2.11761e-73 2.10875e-73 2.09238e-73 2.06981e-73 2.0434e-73 2.01621e-73 1.9913e-73 1.97098e-73 1.95634e-73 1.9472e-73 1.94242e-73 1.94069e-73 1.94116e-73 1.94411e-73 1.95105e-73 1.96433e-73 1.98637e-73 2.0186e-73 2.0606e-73 2.10965e-73 2.16107e-73 2.20935e-73 2.24967e-73 2.27963e-73 2.30028e-73 2.31623e-73 2.33448e-73 2.36219e-73 2.40403e-73 2.45992e-73 2.52405e-73 2.58572e-73 2.63191e-73 2.65092e-73 2.63577e-73 2.58649e-73 2.5102e-73 2.41926e-73 2.32811e-73 2.24974e-73 2.19307e-73 2.16147e-73 2.15272e-73 2.15982e-73 2.17249e-73 2.17895e-73 2.16791e-73 2.1307e-73 2.06293e-73 1.96539e-73 1.84369e-73 1.70661e-73 1.56371e-73 1.42284e-73 1.2884e-73 1.161e-73 1.03839e-73 9.17319e-74 7.95441e-74 6.72696e-74 5.51568e-74 4.36355e-74 3.31839e-74 2.41941e-74 1.68818e-74 1.12617e-74 7.17858e-75 4.37208e-75 2.54474e-75 1.4161e-75 7.53883e-76 3.84224e-76 1.87623e-76 8.78575e-77 3.9487e-77 1.70493e-77 7.07847e-78 2.82847e-78 1.08878e-78 4.04109e-79 1.44746e-79 5.00776e-80 1.67484e-80 5.41938e-81 1.69793e-81 5.15487e-82 1.51763e-82 4.33587e-83 1.20296e-83 3.24328e-84 8.50263e-85 2.16886e-85 5.38615e-86 1.30301e-86 3.07244e-87 7.06509e-88 1.58518e-88 3.47203e-89 7.42752e-90 1.55261e-90 3.17272e-91 6.34083e-92 1.2399e-92 2.37317e-93 4.44778e-94 8.16574e-95 1.46908e-95 2.59087e-96 4.48072e-97 7.60142e-98 1.2654e-98 2.06763e-99 3.31545e-100 5.10407e-101 0 
0 2.41632e-142 2.8321e-141 3.2618e-140 3.71717e-139 4.19135e-138 4.67558e-137 5.15957e-136 5.63173e-135 6.07958e-134 6.49024e-133 6.85103e-132 7.15003e-131 7.37677e-130 7.5228e-129 7.58218e-128 7.5519e-127 7.43207e-126 7.22602e-125 6.94011e-124 6.58342e-123 6.16729e-122 5.7047e-121 5.2096e-120 4.69616e-119 4.17814e-118 3.66823e-117 3.17755e-116 2.71532e-115 2.28859e-114 1.90221e-113 1.55889e-112 1.25939e-111 1.00279e-110 7.86837e-110 6.08271e-109 4.6319e-108 3.47362e-107 2.56491e-106 1.86438e-105 1.33374e-104 9.38819e-104 6.50073e-103 4.42696e-102 2.96416e-101 1.95092e-100 1.26183e-99 8.01795e-99 5.00387e-98 3.0662e-97 1.84422e-96 1.08845e-95 6.30157e-95 3.57754e-94 1.99098e-93 1.08577e-92 5.8002e-92 3.03396e-91 1.55335e-90 7.78111e-90 3.81191e-89 1.8255e-88 8.54198e-88 3.90363e-87 1.7414e-86 7.57927e-86 3.2168e-85 1.33061e-84 5.36117e-84 2.10278e-83 8.0239e-83 2.97686e-82 1.07306e-81 3.75565e-81 1.27536e-80 4.19894e-80 1.3393e-79 4.13528e-79 1.23498e-78 3.56431e-78 9.93288e-78 2.67035e-77 6.91919e-77 1.72635e-76 4.1436e-76 9.55836e-76 2.11703e-75 4.49776e-75 9.15768e-75 1.78528e-74 3.32962e-74 5.93642e-74 1.01116e-73 1.64462e-73 2.55356e-73 3.78492e-73 5.35725e-73 7.24663e-73 9.38008e-73 1.16413e-72 1.38899e-72 1.59893e-72 1.78348e-72 1.93723e-72 2.06004e-72 2.15579e-72 2.23028e-72 2.28928e-72 2.33744e-72 2.37814e-72 2.41394e-72 2.44702e-72 2.47908e-72 2.51065e-72 2.54034e-72 2.56429e-72 2.57631e-72 2.56876e-72 2.53408e-72 2.46661e-72 2.36443e-72 2.23079e-72 2.0747e-72 1.91038e-72 1.75538e-72 1.62763e-72 1.54206e-72 1.50764e-72 1.52574e-72 1.59018e-72 1.68889e-72 1.80673e-72 1.9286e-72 2.04209e-72 2.13908e-72 2.21609e-72 2.27354e-72 2.31418e-72 2.34145e-72 2.35813e-72 2.3657e-72 2.36454e-72 2.35461e-72 2.33632e-72 2.31114e-72 2.28171e-72 2.25143e-72 2.22371e-72 2.20111e-72 2.18485e-72 2.1747e-72 2.16941e-72 2.16749e-72 2.16801e-72 2.1713e-72 2.179e-72 2.19378e-72 2.2183e-72 2.25418e-72 2.30094e-72 2.35556e-72 2.41283e-72 2.4666e-72 2.51153e-72 2.54492e-72 2.56795e-72 2.58577e-72 2.60614e-72 2.63705e-72 2.68368e-72 2.74595e-72 2.81738e-72 2.88606e-72 2.9375e-72 2.95865e-72 2.94177e-72 2.88688e-72 2.80191e-72 2.70063e-72 2.59909e-72 2.5118e-72 2.44865e-72 2.41343e-72 2.40363e-72 2.41149e-72 2.42554e-72 2.43264e-72 2.42026e-72 2.3787e-72 2.30307e-72 2.19426e-72 2.0585e-72 1.90558e-72 1.74615e-72 1.58895e-72 1.4389e-72 1.29668e-72 1.15979e-72 1.02459e-72 8.88486e-73 7.51406e-73 6.16127e-73 4.8745e-73 3.70715e-73 2.70302e-73 1.88621e-73 1.25836e-73 8.02193e-74 4.88616e-74 2.84424e-74 1.58293e-74 8.42793e-75 4.29589e-75 2.09802e-75 9.82562e-76 4.41668e-76 1.90727e-76 7.91977e-77 3.16516e-77 1.21859e-77 4.52369e-78 1.62063e-78 5.60793e-79 1.87594e-79 6.07137e-80 1.90261e-80 5.77756e-81 1.70134e-81 4.8619e-82 1.34923e-82 3.63855e-83 9.54132e-84 2.43445e-84 6.04735e-85 1.46337e-85 3.45153e-86 7.93909e-87 1.7818e-87 3.90385e-88 8.35381e-89 1.74677e-89 3.57062e-90 7.13831e-91 1.39629e-91 2.67337e-92 5.01208e-93 9.20483e-94 1.65658e-94 2.92256e-95 5.0561e-96 8.58056e-97 1.4289e-97 2.33563e-98 3.74653e-99 5.76972e-100 0 
0 2.75413e-141 3.22662e-140 3.71452e-139 4.23122e-138 4.76885e-137 5.31745e-136 5.86529e-135 6.39922e-134 6.90507e-133 7.36828e-132 7.77448e-131 8.11025e-130 8.36382e-129 8.52569e-128 8.58928e-127 8.5513e-126 8.41201e-125 8.1753e-124 7.84848e-123 7.44195e-122 6.96861e-121 6.4432e-120 5.88154e-119 5.29966e-118 4.7131e-117 4.13618e-116 3.58143e-115 3.05919e-114 2.57736e-113 2.14135e-112 1.75416e-111 1.41657e-110 1.12749e-109 8.84331e-109 6.83368e-108 5.2017e-107 3.89939e-106 2.87818e-105 2.09127e-104 1.49548e-103 1.05226e-102 7.28345e-102 4.95811e-101 3.31856e-100 2.18335e-99 1.41164e-98 8.96658e-98 5.59385e-97 3.42648e-96 2.06018e-95 1.21548e-94 7.0345e-94 3.99225e-93 2.221e-92 1.2108e-91 6.46592e-91 3.38106e-90 1.73049e-89 8.6656e-89 4.24385e-88 2.0317e-87 9.5039e-87 4.34188e-86 1.93631e-85 8.42509e-85 3.57473e-84 1.47824e-83 5.95429e-83 2.33476e-82 8.9067e-82 3.3035e-81 1.19049e-80 4.1656e-80 1.41421e-79 4.65499e-79 1.48442e-78 4.58229e-78 1.36817e-77 3.94788e-77 1.09995e-76 2.95652e-76 7.65922e-76 1.91064e-75 4.58513e-75 1.05751e-74 2.34186e-74 4.97468e-74 1.01273e-73 1.97405e-73 3.68125e-73 6.56262e-73 1.11771e-72 1.81776e-72 2.82218e-72 4.18281e-72 5.92013e-72 8.00771e-72 1.03649e-71 1.28634e-71 1.53479e-71 1.76676e-71 1.97069e-71 2.14059e-71 2.27628e-71 2.38206e-71 2.46434e-71 2.5295e-71 2.58268e-71 2.62761e-71 2.66714e-71 2.70369e-71 2.7391e-71 2.77398e-71 2.80678e-71 2.83323e-71 2.8465e-71 2.83816e-71 2.79988e-71 2.7254e-71 2.61262e-71 2.46512e-71 2.29285e-71 2.11151e-71 1.94047e-71 1.79952e-71 1.70512e-71 1.66719e-71 1.68723e-71 1.75841e-71 1.86741e-71 1.99751e-71 2.13206e-71 2.25735e-71 2.36442e-71 2.44944e-71 2.51285e-71 2.5577e-71 2.58777e-71 2.60613e-71 2.61443e-71 2.6131e-71 2.60209e-71 2.58187e-71 2.55407e-71 2.52161e-71 2.48824e-71 2.4577e-71 2.43283e-71 2.41495e-71 2.4038e-71 2.398e-71 2.3959e-71 2.39648e-71 2.40009e-71 2.40857e-71 2.42483e-71 2.45184e-71 2.49137e-71 2.54289e-71 2.60308e-71 2.6662e-71 2.72548e-71 2.77501e-71 2.81185e-71 2.83728e-71 2.85696e-71 2.87947e-71 2.91358e-71 2.96503e-71 3.03369e-71 3.11243e-71 3.18813e-71 3.24482e-71 3.26811e-71 3.24949e-71 3.18898e-71 3.09532e-71 2.98369e-71 2.87176e-71 2.77553e-71 2.70589e-71 2.66703e-71 2.65618e-71 2.66478e-71 2.68019e-71 2.68794e-71 2.67418e-71 2.62824e-71 2.54472e-71 2.42458e-71 2.2747e-71 2.10587e-71 1.92984e-71 1.75623e-71 1.59049e-71 1.43336e-71 1.28209e-71 1.13267e-71 9.82234e-72 8.30714e-72 6.81182e-72 5.38941e-72 4.09897e-72 2.98888e-72 2.08583e-72 1.39164e-72 8.87231e-73 5.40461e-73 3.14632e-73 1.75123e-73 9.32502e-74 4.7537e-74 2.32188e-74 1.08754e-74 4.88924e-75 2.11164e-75 8.76971e-76 3.50539e-76 1.34981e-76 5.01165e-77 1.79576e-77 6.21513e-78 2.07946e-78 6.73142e-79 2.1099e-79 6.40841e-80 1.88754e-80 5.39523e-81 1.4976e-81 4.03964e-82 1.05958e-82 2.70419e-83 6.71919e-84 1.62639e-84 3.83709e-85 8.82844e-86 1.98197e-86 4.3437e-87 9.29781e-88 1.94475e-88 3.97654e-89 7.95233e-90 1.55601e-90 2.98015e-91 5.58906e-92 1.02679e-92 1.84852e-93 3.26229e-94 5.64579e-95 9.58464e-96 1.59667e-96 2.61078e-97 4.1894e-98 6.45398e-99 0 
0 3.10593e-140 3.63717e-139 4.1853e-138 4.76537e-137 5.36849e-136 5.98344e-135 6.59699e-134 7.19437e-133 7.75968e-132 8.2766e-131 8.72908e-130 9.10213e-129 9.38264e-128 9.56011e-127 9.62728e-126 9.5806e-125 9.42052e-124 9.15153e-123 8.78196e-122 8.32355e-121 7.79085e-120 7.20043e-119 6.57e-118 5.91755e-117 5.26042e-116 4.6146e-115 3.99403e-114 3.41023e-113 2.87194e-112 2.38513e-111 1.95307e-110 1.57656e-109 1.25434e-108 9.83426e-108 7.59642e-107 5.78001e-106 4.33122e-105 3.19567e-104 2.32106e-103 1.65916e-102 1.16699e-101 8.0745e-101 5.49453e-100 3.67622e-99 2.41777e-98 1.56262e-97 9.922e-97 6.18765e-96 3.78884e-95 2.27724e-94 1.34307e-93 7.7702e-93 4.40824e-92 2.4516e-91 1.33606e-90 7.13243e-90 3.72834e-89 1.90761e-88 9.54948e-88 4.67523e-87 2.23752e-86 1.04634e-85 4.77878e-85 2.13052e-84 9.26734e-84 3.93095e-83 1.62508e-82 6.54394e-82 2.56527e-81 9.78343e-81 3.62772e-80 1.307e-79 4.57212e-79 1.55185e-78 5.10682e-78 1.62812e-77 5.02477e-77 1.49997e-76 4.32727e-76 1.20541e-75 3.23935e-75 8.39038e-75 2.09266e-74 5.02109e-74 1.15787e-73 2.56372e-73 5.44518e-73 1.10836e-72 2.1602e-72 4.02791e-72 7.17987e-72 1.22272e-71 1.98838e-71 3.08685e-71 4.5748e-71 6.47461e-71 8.75739e-71 1.1335e-70 1.40671e-70 1.67839e-70 1.93207e-70 2.15509e-70 2.34088e-70 2.48928e-70 2.60494e-70 2.69488e-70 2.76609e-70 2.82419e-70 2.87328e-70 2.91649e-70 2.95644e-70 2.99516e-70 3.0333e-70 3.06915e-70 3.09806e-70 3.11255e-70 3.10344e-70 3.06161e-70 2.98026e-70 2.85706e-70 2.69595e-70 2.50779e-70 2.30974e-70 2.12295e-70 1.96904e-70 1.86599e-70 1.82462e-70 1.84658e-70 1.9244e-70 2.04351e-70 2.18566e-70 2.33267e-70 2.46956e-70 2.58654e-70 2.67942e-70 2.74869e-70 2.79767e-70 2.83049e-70 2.8505e-70 2.85951e-70 2.85798e-70 2.8459e-70 2.82378e-70 2.79341e-70 2.75797e-70 2.72158e-70 2.68829e-70 2.6612e-70 2.64174e-70 2.62962e-70 2.62333e-70 2.62105e-70 2.62169e-70 2.62561e-70 2.63484e-70 2.65255e-70 2.68199e-70 2.7251e-70 2.78128e-70 2.84692e-70 2.91578e-70 2.98044e-70 3.03449e-70 3.0747e-70 3.10248e-70 3.124e-70 3.14861e-70 3.18588e-70 3.24204e-70 3.31696e-70 3.40287e-70 3.48544e-70 3.54726e-70 3.57265e-70 3.55233e-70 3.48632e-70 3.38415e-70 3.26237e-70 3.14028e-70 3.03528e-70 2.95929e-70 2.91685e-70 2.90496e-70 2.91427e-70 2.931e-70 2.93936e-70 2.92424e-70 2.87398e-70 2.7827e-70 2.65143e-70 2.48767e-70 2.30321e-70 2.11085e-70 1.92111e-70 1.73993e-70 1.56812e-70 1.40269e-70 1.23926e-70 1.0747e-70 9.08942e-71 7.45355e-71 5.89739e-71 4.48554e-71 3.27096e-71 2.28283e-71 1.52319e-71 9.71174e-72 5.91646e-72 3.44461e-72 1.91745e-72 1.02111e-72 5.20601e-73 2.5431e-73 1.19131e-73 5.35642e-74 2.31373e-74 9.6104e-75 3.84201e-75 1.47966e-75 5.49471e-76 1.96919e-76 6.81663e-77 2.28115e-77 7.38575e-78 2.31547e-78 7.03428e-79 2.07234e-79 5.9248e-80 1.64498e-80 4.43826e-81 1.16442e-81 2.97252e-82 7.38784e-83 1.78871e-83 4.2212e-84 9.71493e-85 2.18161e-85 4.78261e-86 1.02403e-86 2.14254e-87 4.38231e-88 8.7665e-89 1.71586e-89 3.28735e-90 6.16719e-91 1.13337e-91 2.04109e-92 3.60335e-93 6.23816e-94 1.05939e-94 1.76542e-95 2.88773e-96 4.63546e-97 7.1436e-98 0 
0 3.46522e-139 4.05614e-138 4.66534e-137 5.30959e-136 5.97896e-135 6.6609e-134 7.3407e-133 8.00192e-132 8.62693e-131 9.19761e-130 9.69623e-129 1.01062e-127 1.04132e-126 1.06056e-125 1.06755e-124 1.06192e-123 1.04374e-122 1.0135e-121 9.72162e-121 9.21028e-120 8.61721e-119 7.96083e-118 7.2608e-117 6.53703e-116 5.80871e-115 5.09347e-114 4.40671e-113 3.76104e-112 3.16609e-111 2.62836e-110 2.15137e-109 1.73594e-108 1.38059e-107 1.08198e-106 8.35444e-106 6.35428e-105 4.75969e-104 3.51044e-103 2.54871e-102 1.82119e-101 1.28047e-100 8.85634e-100 6.0243e-99 4.02917e-98 2.64892e-97 1.71139e-96 1.08627e-95 6.77184e-95 4.14508e-94 2.49047e-93 1.46831e-92 8.49184e-92 4.816e-91 2.67745e-90 1.45866e-89 7.78432e-89 4.06777e-88 2.08061e-87 1.04122e-86 5.09598e-86 2.43813e-85 1.1398e-84 5.20408e-84 2.31944e-83 1.00862e-82 4.27706e-82 1.76767e-81 7.11616e-81 2.78883e-80 1.06332e-79 3.94182e-79 1.41981e-78 4.96552e-78 1.68497e-77 5.54361e-77 1.76698e-76 5.45213e-76 1.62719e-75 4.69336e-75 1.30714e-74 3.51205e-74 9.09506e-74 2.26803e-73 5.44096e-73 1.2545e-72 2.77726e-72 5.8979e-72 1.20036e-71 2.33921e-71 4.36123e-71 7.77323e-71 1.32365e-70 2.15234e-70 3.34115e-70 4.9514e-70 7.00727e-70 9.47752e-70 1.22668e-69 1.52232e-69 1.81633e-69 2.09085e-69 2.3322e-69 2.53328e-69 2.69386e-69 2.819e-69 2.9163e-69 2.99331e-69 3.05613e-69 3.10921e-69 3.15594e-69 3.19916e-69 3.24105e-69 3.2823e-69 3.32109e-69 3.35235e-69 3.36802e-69 3.35817e-69 3.31295e-69 3.225e-69 3.09183e-69 2.91769e-69 2.71432e-69 2.50028e-69 2.29842e-69 2.13211e-69 2.02079e-69 1.97615e-69 1.99996e-69 2.08414e-69 2.21295e-69 2.36666e-69 2.5256e-69 2.67359e-69 2.80006e-69 2.90048e-69 2.97536e-69 3.02829e-69 3.06373e-69 3.08531e-69 3.09498e-69 3.09327e-69 3.08015e-69 3.05621e-69 3.02337e-69 2.98509e-69 2.9458e-69 2.9099e-69 2.8807e-69 2.85975e-69 2.84672e-69 2.83996e-69 2.83752e-69 2.83821e-69 2.84243e-69 2.85237e-69 2.87146e-69 2.90322e-69 2.94972e-69 3.01035e-69 3.08119e-69 3.1555e-69 3.2253e-69 3.28367e-69 3.3271e-69 3.35713e-69 3.38042e-69 3.40704e-69 3.44733e-69 3.50799e-69 3.5889e-69 3.68164e-69 3.77077e-69 3.83748e-69 3.86488e-69 3.84293e-69 3.77167e-69 3.66138e-69 3.52993e-69 3.39812e-69 3.28476e-69 3.20271e-69 3.15684e-69 3.14395e-69 3.15393e-69 3.1719e-69 3.18082e-69 3.16438e-69 3.10998e-69 3.01125e-69 2.86932e-69 2.69227e-69 2.49283e-69 2.28482e-69 2.07961e-69 1.88362e-69 1.69773e-69 1.5187e-69 1.34179e-69 1.16365e-69 9.8421e-70 8.07106e-70 6.38626e-70 4.85761e-70 3.54248e-70 2.47248e-70 1.64985e-70 1.05201e-70 6.40945e-71 3.73197e-71 2.0776e-71 1.10651e-71 5.64198e-72 2.75638e-72 1.29137e-72 5.80705e-73 2.50872e-73 1.04217e-73 4.16698e-74 1.60506e-74 5.96135e-75 2.13679e-75 7.3981e-76 2.47619e-76 8.01879e-77 2.51443e-77 7.6403e-78 2.25136e-78 6.43804e-79 1.78789e-79 4.82497e-80 1.26619e-80 3.23311e-81 8.03756e-82 1.94653e-82 4.59487e-83 1.05778e-83 2.37604e-84 5.21035e-85 1.11595e-85 2.33553e-86 4.7785e-87 9.56199e-88 1.87214e-88 3.5879e-89 6.7332e-90 1.23779e-90 2.22987e-91 3.93795e-92 6.81973e-93 1.15855e-93 1.93133e-94 3.16023e-95 5.07466e-96 7.82311e-97 0 
0 3.82435e-138 4.47456e-137 5.14433e-136 5.85215e-135 6.58701e-134 7.33508e-133 8.08016e-132 8.80414e-131 9.48767e-130 1.01109e-128 1.06544e-127 1.11002e-126 1.14324e-125 1.16386e-124 1.17104e-123 1.16436e-122 1.14394e-121 1.11033e-120 1.06459e-119 1.00817e-118 9.4286e-118 8.70678e-117 7.93786e-116 7.14364e-115 6.34512e-114 5.56155e-113 4.80971e-112 4.10333e-111 3.45284e-110 2.86525e-109 2.34433e-108 1.89089e-107 1.50322e-106 1.17763e-105 9.08937e-105 6.91057e-104 5.17438e-103 3.81482e-102 2.76863e-101 1.97759e-100 1.3899e-99 9.60965e-99 6.53429e-98 4.36865e-97 2.87105e-96 1.85423e-95 1.17651e-94 7.33178e-94 4.48623e-93 2.6945e-92 1.58805e-91 9.18118e-91 5.20517e-90 2.89284e-89 1.57548e-88 8.40498e-88 4.39068e-87 2.24505e-86 1.12316e-85 5.4953e-85 2.62837e-84 1.22837e-83 5.60678e-83 2.49819e-82 1.08604e-81 4.60407e-81 1.90229e-80 7.65605e-80 2.99962e-79 1.1434e-78 4.23759e-78 1.52596e-77 5.3355e-77 1.8101e-76 5.95393e-76 1.89735e-75 5.85314e-75 1.74652e-74 5.03652e-74 1.40244e-73 3.76743e-73 9.75471e-73 2.43212e-72 5.83368e-72 1.34484e-71 2.97684e-71 6.32091e-71 1.28629e-70 2.50638e-70 4.6724e-70 8.32705e-70 1.41783e-69 2.30531e-69 3.57838e-69 5.30266e-69 7.50406e-69 1.01491e-68 1.31357e-68 1.63013e-68 1.94495e-68 2.23892e-68 2.49737e-68 2.71269e-68 2.88464e-68 3.01862e-68 3.12276e-68 3.20517e-68 3.27238e-68 3.32917e-68 3.37917e-68 3.42542e-68 3.47026e-68 3.51443e-68 3.55593e-68 3.58938e-68 3.60615e-68 3.5956e-68 3.54723e-68 3.45316e-68 3.31073e-68 3.12448e-68 2.907e-68 2.67811e-68 2.46226e-68 2.28446e-68 2.16547e-68 2.1178e-68 2.14335e-68 2.23346e-68 2.37129e-68 2.53574e-68 2.70577e-68 2.8641e-68 2.99938e-68 3.1068e-68 3.18689e-68 3.24348e-68 3.28136e-68 3.30438e-68 3.31466e-68 3.31275e-68 3.29866e-68 3.27301e-68 3.23788e-68 3.19697e-68 3.15501e-68 3.11669e-68 3.08555e-68 3.06323e-68 3.04936e-68 3.04218e-68 3.0396e-68 3.04034e-68 3.04483e-68 3.05542e-68 3.07579e-68 3.10967e-68 3.15931e-68 3.22404e-68 3.29969e-68 3.37906e-68 3.45361e-68 3.51596e-68 3.56238e-68 3.59451e-68 3.61943e-68 3.64793e-68 3.69102e-68 3.75586e-68 3.84231e-68 3.94137e-68 4.03656e-68 4.1078e-68 4.13704e-68 4.11358e-68 4.03746e-68 3.91967e-68 3.77927e-68 3.63849e-68 3.51739e-68 3.42972e-68 3.38068e-68 3.36684e-68 3.37742e-68 3.39653e-68 3.40595e-68 3.38825e-68 3.32998e-68 3.22434e-68 3.07249e-68 2.88309e-68 2.66973e-68 2.44717e-68 2.22758e-68 2.01779e-68 1.81878e-68 1.62706e-68 1.43759e-68 1.24677e-68 1.05455e-68 8.6482e-69 6.84321e-69 5.20544e-69 3.79634e-69 2.64983e-69 1.76831e-69 1.12763e-69 6.8707e-70 4.00087e-70 2.2275e-70 1.18646e-70 6.05023e-71 2.95614e-71 1.38512e-71 6.22936e-72 2.6915e-72 1.11826e-72 4.47181e-73 1.72274e-73 6.39939e-74 2.29418e-74 7.94437e-75 2.6595e-75 8.61404e-76 2.70161e-76 8.21071e-77 2.41994e-77 6.92164e-78 1.92261e-78 5.18975e-79 1.36224e-79 3.47922e-80 8.65156e-81 2.09577e-81 4.94846e-82 1.13949e-82 2.56028e-83 5.61594e-84 1.20316e-84 2.5188e-85 5.15499e-86 1.03185e-86 2.02088e-87 3.87417e-88 7.27273e-89 1.33741e-89 2.41011e-90 4.25766e-91 7.37588e-92 1.25346e-92 2.09026e-93 3.42147e-94 5.49607e-95 8.47561e-96 0 
0 4.17471e-137 4.88236e-136 5.61069e-135 6.37987e-134 7.17785e-133 7.98952e-132 8.79723e-131 9.58129e-130 1.03207e-128 1.09939e-127 1.15799e-126 1.20591e-125 1.24147e-124 1.26333e-123 1.27057e-122 1.2628e-121 1.24012e-120 1.20318e-119 1.15313e-118 1.09156e-117 1.02042e-116 9.41911e-116 8.58373e-115 7.7217e-114 6.85575e-113 6.00667e-112 5.19254e-111 4.42815e-110 3.72466e-109 3.08957e-108 2.52686e-107 2.03731e-106 1.61898e-105 1.26782e-104 9.78168e-104 7.43404e-103 5.56419e-102 4.10063e-101 2.97494e-100 2.12414e-99 1.49235e-98 1.03141e-97 7.01069e-97 4.68544e-96 3.07813e-95 1.98725e-94 1.26045e-93 7.85215e-93 4.80295e-92 2.88373e-91 1.69899e-90 9.81921e-90 5.56503e-89 3.09181e-88 1.68328e-87 8.97718e-87 4.68809e-86 2.39636e-85 1.19848e-84 5.86204e-84 2.80294e-83 1.30956e-82 5.97562e-82 2.66177e-81 1.15682e-80 4.90279e-80 2.02517e-79 8.1484e-79 3.1917e-78 1.2163e-77 4.50667e-77 1.62247e-76 5.6716e-76 1.92368e-75 6.32614e-75 2.01553e-74 6.21643e-74 1.85455e-73 5.34703e-73 1.48863e-72 3.99825e-72 1.03506e-71 2.58027e-71 6.18808e-71 1.42634e-70 3.1568e-70 6.70217e-70 1.36371e-69 2.65695e-69 4.95259e-69 8.82558e-69 1.50259e-68 2.44295e-68 3.79179e-68 5.61861e-68 7.95085e-68 1.0753e-67 1.39171e-67 1.72708e-67 2.06061e-67 2.37206e-67 2.64589e-67 2.87402e-67 3.05619e-67 3.19812e-67 3.3084e-67 3.39565e-67 3.46679e-67 3.52689e-67 3.57982e-67 3.6288e-67 3.67629e-67 3.72306e-67 3.76701e-67 3.80242e-67 3.82016e-67 3.809e-67 3.7578e-67 3.65825e-67 3.50753e-67 3.31047e-67 3.08035e-67 2.83819e-67 2.60984e-67 2.42176e-67 2.29593e-67 2.24558e-67 2.2727e-67 2.36813e-67 2.51405e-67 2.68812e-67 2.86809e-67 3.03566e-67 3.17884e-67 3.29252e-67 3.37727e-67 3.43714e-67 3.47718e-67 3.50149e-67 3.51229e-67 3.51019e-67 3.49522e-67 3.46803e-67 3.43085e-67 3.38759e-67 3.34325e-67 3.3028e-67 3.26994e-67 3.24641e-67 3.23181e-67 3.22427e-67 3.22156e-67 3.22234e-67 3.22708e-67 3.23824e-67 3.25973e-67 3.2955e-67 3.34793e-67 3.41631e-67 3.49623e-67 3.58008e-67 3.65887e-67 3.72477e-67 3.77385e-67 3.80785e-67 3.83424e-67 3.86442e-67 3.91001e-67 3.97858e-67 4.06996e-67 4.17466e-67 4.27524e-67 4.3505e-67 4.38138e-67 4.35658e-67 4.27614e-67 4.15166e-67 4.0033e-67 3.85453e-67 3.72655e-67 3.63387e-67 3.582e-67 3.56731e-67 3.5784e-67 3.5985e-67 3.60834e-67 3.58949e-67 3.52775e-67 3.4159e-67 3.25518e-67 3.05472e-67 2.82889e-67 2.5933e-67 2.36081e-67 2.13865e-67 1.92784e-67 1.72472e-67 1.52394e-67 1.32171e-67 1.11797e-67 9.16867e-68 7.25535e-68 5.51921e-68 4.02539e-68 2.80987e-68 1.87523e-68 1.1959e-68 7.28719e-69 4.24373e-69 2.36292e-69 1.2587e-69 6.41924e-70 3.13676e-70 1.4699e-70 6.61143e-71 2.85693e-71 1.18714e-71 4.7479e-72 1.82936e-72 6.79648e-73 2.43692e-73 8.44005e-74 2.82593e-74 9.15474e-75 2.87173e-75 8.72945e-76 2.57336e-76 7.36198e-77 2.04537e-77 5.52236e-78 1.44988e-78 3.70395e-79 9.21265e-80 2.23225e-80 5.27208e-81 1.21433e-81 2.72918e-82 5.98808e-83 1.28325e-83 2.68724e-84 5.50134e-85 1.10151e-85 2.15796e-86 4.13823e-87 7.77089e-88 1.42947e-88 2.57685e-89 4.5537e-90 7.89136e-91 1.34151e-91 2.23785e-92 3.66431e-93 5.88821e-94 9.08337e-95 0 
0 4.50702e-136 5.2687e-135 6.052e-134 6.87866e-133 7.73565e-132 8.60664e-131 9.47261e-130 1.03124e-128 1.11034e-127 1.18225e-126 1.24473e-125 1.29569e-124 1.33333e-123 1.35623e-122 1.36343e-121 1.35451e-120 1.32962e-119 1.28947e-118 1.23532e-117 1.16887e-116 1.09224e-115 1.00779e-114 9.18026e-114 8.25494e-113 7.3262e-112 6.41624e-111 5.54435e-110 4.72626e-109 3.97382e-108 3.29494e-107 2.69375e-106 2.17101e-105 1.72455e-104 1.34996e-103 1.04114e-102 7.90958e-102 5.91785e-101 4.35961e-100 3.16162e-99 2.25659e-98 1.58481e-97 1.09491e-96 7.43957e-96 4.97026e-95 3.26406e-94 2.10653e-93 1.33564e-92 8.3176e-92 5.08589e-91 3.05255e-90 1.79784e-89 1.0387e-88 5.88486e-88 3.26842e-87 1.77886e-86 9.48385e-86 4.95111e-85 2.53002e-84 1.26494e-83 6.18521e-83 2.95658e-82 1.38094e-81 6.29951e-81 2.80524e-80 1.21884e-79 5.16421e-79 2.13258e-78 8.57836e-78 3.35925e-77 1.27984e-76 4.74093e-76 1.7064e-75 5.96363e-75 2.02228e-74 6.64896e-74 2.11794e-73 6.53098e-73 1.94801e-72 5.61544e-72 1.56308e-71 4.19748e-71 1.08646e-70 2.70798e-70 6.49342e-70 1.49651e-69 3.31167e-69 7.03011e-69 1.43028e-68 2.78635e-68 5.19328e-68 9.2537e-68 1.57535e-67 2.56107e-67 3.97491e-67 5.88967e-67 8.33409e-67 1.1271e-66 1.45872e-66 1.81022e-66 2.15981e-66 2.48625e-66 2.77327e-66 3.01239e-66 3.20332e-66 3.35205e-66 3.46759e-66 3.55896e-66 3.63345e-66 3.69639e-66 3.75182e-66 3.80313e-66 3.85288e-66 3.90187e-66 3.9479e-66 3.98498e-66 4.00356e-66 3.99187e-66 3.93826e-66 3.83404e-66 3.67627e-66 3.46999e-66 3.22913e-66 2.97566e-66 2.73669e-66 2.53987e-66 2.40824e-66 2.35562e-66 2.3841e-66 2.48409e-66 2.63691e-66 2.8192e-66 3.00764e-66 3.18309e-66 3.333e-66 3.45202e-66 3.54074e-66 3.60339e-66 3.64527e-66 3.67065e-66 3.68188e-66 3.67961e-66 3.66386e-66 3.63536e-66 3.59643e-66 3.55118e-66 3.50484e-66 3.46258e-66 3.42829e-66 3.40375e-66 3.38855e-66 3.3807e-66 3.37789e-66 3.37871e-66 3.38364e-66 3.39529e-66 3.41772e-66 3.45508e-66 3.50985e-66 3.58131e-66 3.66483e-66 3.75248e-66 3.83484e-66 3.90375e-66 3.95509e-66 3.99067e-66 4.01833e-66 4.04994e-66 4.09766e-66 4.16939e-66 4.26495e-66 4.37441e-66 4.47954e-66 4.5582e-66 4.59046e-66 4.56452e-66 4.48043e-66 4.35031e-66 4.19522e-66 4.0397e-66 3.90589e-66 3.80896e-66 3.75468e-66 3.73926e-66 3.75077e-66 3.77167e-66 3.78184e-66 3.762e-66 3.69727e-66 3.58012e-66 3.41183e-66 3.20195e-66 2.96549e-66 2.71878e-66 2.47527e-66 2.24254e-66 2.02163e-66 1.80873e-66 1.59825e-66 1.38621e-66 1.17257e-66 9.6168e-67 7.61029e-67 5.78948e-67 4.22273e-67 2.94779e-67 1.9674e-67 1.25475e-67 7.64639e-68 4.45325e-68 2.47977e-68 1.32106e-68 6.73788e-69 3.29278e-69 1.54317e-69 6.94174e-70 3.00001e-70 1.24674e-70 4.98694e-71 1.92172e-71 7.14065e-72 2.56071e-72 8.8702e-73 2.97045e-73 9.62459e-74 3.01966e-74 9.18089e-75 2.70697e-75 7.74583e-76 2.15247e-76 5.8128e-77 1.52648e-77 3.90055e-78 9.70398e-79 2.35188e-79 5.55604e-80 1.28007e-80 2.87769e-81 6.31564e-82 1.35382e-82 2.83583e-83 5.80722e-84 1.16309e-84 2.2793e-85 4.37225e-86 8.21288e-87 1.51125e-87 2.72514e-88 4.81732e-89 8.35093e-90 1.42011e-90 2.36976e-91 3.88162e-92 6.23955e-93 9.62856e-94 0 