# vtk DataFile Version 3.0
Gray-Scott Simulation Output
ASCII
DATASET STRUCTURED_POINTS
DIMENSIONS 256 256 1
SPACING 1.0 1.0 1.0
ORIGIN 0 0 0
POINT_DATA 65536
SCALARS u double
LOOKUP_TABLE default
0 0 0 0 0 0 0 0 0 0 0 0 0 0 0 0 0 0 0 0 0 0 0 0 0 0 0 0 0 0 0 0 0 0 0 0 0 0 0 0 0 0 0 0 0 0 0 0 0 0 0 0 0 0 0 0 0 0 0 0 0 0 0 0 0 0 0 0 0 0 0 0 0 0 0 0 0 0 0 0 0 0 0 0 0 0 0 0 0 0 0 0 0 0 0 0 0 0 0 0 0 0 0 0 0 0 0 0 0 0 0 0 0 0 0 0 0 0 0 0 0 0 0 0 0 0 0 0 0 0 0 0 0 0 0 0 0 0 0 0 0 0 0 0 0 0 0 0 0 0 0 0 0 0 0 0 0 0 0 0 0 0 0 0 0 0 0 0 0 0 0 0 0 0 0 0 0 0 0 0 0 0 0 0 0 0 0 0 0 0 0 0 0 0 0 0 0 0 0 0 0 0 0 0 0 0 0 0 0 0 0 0 0 0 0 0 0 0 0 0 0 0 0 0 0 0 0 0 0 0 0 0 0 0 0 0 0 0 0 0 0 0 0 0 0 0 0 0 0 0 0 0 0 0 0 0 
0 4.20905e-133 4.14671e-132 4.00314e-131 3.82431e-130 3.61544e-129 3.38208e-128 3.13022e-127 2.86611e-126 2.5959e-125 2.3255e-124 2.0603e-123 1.80502e-122 1.56357e-121 1.33904e-120 1.13358e-119 9.48514e-119 7.84358e-118 6.40927e-117 5.17452e-116 4.12707e-115 3.25136e-114 2.52976e-113 1.94368e-112 1.47447e-111 1.10421e-110 8.16216e-110 5.95426e-109 4.28601e-108 3.04375e-107 2.13218e-106 1.47307e-105 1.00353e-104 6.74016e-104 4.46233e-103 2.91154e-102 1.87184e-101 1.18554e-100 7.39564e-100 4.54313e-99 2.74766e-98 1.6357e-97 9.58248e-97 5.52313e-96 3.13128e-95 1.74575e-94 9.56871e-94 5.15496e-93 2.72885e-92 1.41905e-91 7.247e-91 3.63354e-90 1.78807e-89 8.63351e-89 4.08882e-88 1.89878e-87 8.64305e-87 3.855e-86 1.68418e-85 7.20442e-85 3.01637e-84 1.23559e-83 4.94984e-83 1.93842e-82 7.41741e-82 2.77212e-81 1.01139e-80 3.60055e-80 1.25009e-79 4.23069e-79 1.39493e-78 4.47842e-78 1.39921e-77 4.25182e-77 1.25586e-76 3.60343e-76 1.00375e-75 2.71261e-75 7.10751e-75 1.80436e-74 4.43512e-74 1.05479e-73 2.4255e-73 5.389e-73 1.15607e-72 2.39293e-72 4.77593e-72 9.18514e-72 1.70119e-71 3.03263e-71 5.20085e-71 8.57727e-71 1.35995e-70 2.0727e-70 3.03679e-70 4.27838e-70 5.79926e-70 7.56975e-70 9.52724e-70 1.15821e-69 1.36305e-69 1.5572e-69 1.73255e-69 1.88413e-69 2.0104e-69 2.11276e-69 2.19457e-69 2.26001e-69 2.31318e-69 2.35766e-69 2.39624e-69 2.43088e-69 2.46256e-69 2.49096e-69 2.51423e-69 2.52893e-69 2.53029e-69 2.51295e-69 2.47206e-69 2.40457e-69 2.31044e-69 2.19346e-69 2.06148e-69 1.92573e-69 1.7994e-69 1.69557e-69 1.625e-69 1.59427e-69 1.60469e-69 1.65228e-69 1.72882e-69 1.82356e-69 1.9253e-69 2.02419e-69 2.11296e-69 2.18742e-69 2.24615e-69 2.28971e-69 2.31975e-69 2.3381e-69 2.34628e-69 2.34546e-69 2.33662e-69 2.32096e-69 2.30011e-69 2.27618e-69 2.25158e-69 2.22861e-69 2.20905e-69 2.1939e-69 2.18338e-69 2.17713e-69 2.17467e-69 2.17584e-69 2.18107e-69 2.19145e-69 2.2084e-69 2.23319e-69 2.26622e-69 2.30664e-69 2.35213e-69 2.39932e-69 2.44452e-69 2.48479e-69 2.51891e-69 2.54789e-69 2.57488e-69 2.60418e-69 2.63979e-69 2.68371e-69 2.7347e-69 2.78788e-69 2.83545e-69 2.86848e-69 2.87918e-69 2.86314e-69 2.82064e-69 2.7568e-69 2.68047e-69 2.60217e-69 2.53177e-69 2.47641e-69 2.43921e-69 2.41887e-69 2.4101e-69 2.40477e-69 2.39344e-69 2.36714e-69 2.31894e-69 2.24524e-69 2.1462e-69 2.02553e-69 1.88927e-69 1.7443e-69 1.59666e-69 1.45047e-69 1.30754e-69 1.16781e-69 1.03035e-69 8.94561e-70 7.60964e-70 6.3155e-70 5.09436e-70 3.98137e-70 3.00713e-70 2.19101e-70 1.53794e-70 1.03915e-70 6.7554e-71 4.22456e-71 2.54149e-71 1.47119e-71 8.19739e-72 4.3985e-72 2.27397e-72 1.13337e-72 5.44918e-73 2.529e-73 1.13373e-73 4.91259e-74 2.05894e-74 8.35227e-75 3.28158e-75 1.24959e-75 4.61471e-76 1.65382e-76 5.75538e-77 1.9461e-77 6.39771e-78 2.04599e-78 6.36863e-79 1.93061e-79 5.70268e-80 1.6422e-80 4.61268e-81 1.26437e-81 3.3837e-82 8.84524e-83 2.25953e-83 5.64292e-84 1.37832e-84 3.29407e-85 7.70587e-86 1.76515e-86 3.96072e-87 8.70871e-88 1.87703e-88 3.96709e-89 8.22431e-90 1.67298e-90 3.34023e-91 6.5477e-92 1.26049e-92 2.38137e-93 4.28491e-94 0 
0 4.14329e-132 4.08054e-131 3.9379e-130 3.76069e-129 3.55408e-128 3.32354e-127 3.075e-126 2.81458e-125 2.54837e-124 2.28216e-123 2.02122e-122 1.77019e-121 1.53289e-120 1.31233e-119 1.1106e-118 9.28983e-118 7.67956e-117 6.2732e-116 5.06302e-115 4.03684e-114 3.17926e-113 2.47287e-112 1.89937e-111 1.44041e-110 1.07836e-109 7.9686e-109 5.81127e-108 4.18179e-107 2.96883e-106 2.07906e-105 1.43594e-104 9.77946e-104 6.56637e-103 4.34599e-102 2.8348e-101 1.82198e-100 1.15363e-99 7.19452e-99 4.41834e-98 2.67144e-97 1.58989e-96 9.31153e-96 5.36551e-95 3.0411e-94 1.69502e-93 9.28825e-93 5.00257e-92 2.64751e-91 1.37641e-90 7.02745e-90 3.5226e-89 1.73306e-88 8.3659e-88 3.96116e-87 1.83907e-86 8.36937e-86 3.73211e-85 1.63014e-84 6.97174e-84 2.91835e-83 1.19519e-82 4.78704e-82 1.8743e-81 7.17069e-81 2.67941e-80 9.77393e-80 3.4789e-79 1.20764e-78 4.08638e-78 1.34713e-77 4.32429e-77 1.35085e-76 4.10429e-76 1.21212e-75 3.47746e-75 9.68535e-75 2.61713e-74 6.85653e-74 1.74045e-73 4.27759e-73 1.01722e-72 2.3389e-72 5.19613e-72 1.1146e-71 2.30692e-71 4.60393e-71 8.85377e-71 1.63972e-70 2.92288e-70 5.01239e-70 8.26607e-70 1.31055e-69 1.99735e-69 2.92631e-69 4.12263e-69 5.58804e-69 7.29395e-69 9.18004e-69 1.11599e-68 1.31337e-68 1.50043e-68 1.66938e-68 1.81543e-68 1.93708e-68 2.03569e-68 2.11448e-68 2.17749e-68 2.22868e-68 2.27149e-68 2.30862e-68 2.34197e-68 2.37246e-68 2.39979e-68 2.42218e-68 2.43632e-68 2.43763e-68 2.42094e-68 2.38159e-68 2.31665e-68 2.22608e-68 2.11353e-68 1.98655e-68 1.85596e-68 1.73443e-68 1.63456e-68 1.56671e-68 1.53718e-68 1.54726e-68 1.5931e-68 1.66678e-68 1.75798e-68 1.8559e-68 1.95107e-68 2.03651e-68 2.10816e-68 2.16466e-68 2.20657e-68 2.23546e-68 2.25309e-68 2.26093e-68 2.26011e-68 2.25159e-68 2.2365e-68 2.21644e-68 2.19343e-68 2.16979e-68 2.14772e-68 2.12894e-68 2.11441e-68 2.10432e-68 2.09833e-68 2.09598e-68 2.0971e-68 2.10212e-68 2.11208e-68 2.12837e-68 2.15217e-68 2.1839e-68 2.22273e-68 2.26644e-68 2.31179e-68 2.35522e-68 2.39393e-68 2.42672e-68 2.45459e-68 2.48055e-68 2.50874e-68 2.54298e-68 2.58521e-68 2.63422e-68 2.68534e-68 2.73106e-68 2.76279e-68 2.77308e-68 2.75766e-68 2.71681e-68 2.65546e-68 2.5821e-68 2.50685e-68 2.43918e-68 2.38596e-68 2.35019e-68 2.3306e-68 2.32212e-68 2.31694e-68 2.30598e-68 2.28062e-68 2.2342e-68 2.16325e-68 2.06793e-68 1.95179e-68 1.82065e-68 1.6811e-68 1.53897e-68 1.39821e-68 1.26054e-68 1.12593e-68 9.93471e-69 8.62589e-69 7.33804e-69 6.09035e-69 4.91294e-69 3.83973e-69 2.90026e-69 2.11322e-69 1.48341e-69 1.00234e-69 6.51639e-70 4.07527e-70 2.4518e-70 1.41934e-70 7.90888e-71 4.24392e-71 2.19418e-71 1.09367e-71 5.25863e-72 2.44073e-72 1.09424e-72 4.74183e-73 1.98753e-73 8.06327e-74 3.16832e-74 1.20658e-74 4.45632e-75 1.59723e-75 5.55904e-76 1.87994e-76 6.18095e-77 1.97692e-77 6.15447e-78 1.86595e-78 5.51248e-79 1.58767e-79 4.46021e-80 1.22277e-80 3.27294e-81 8.55716e-82 2.18633e-82 5.46112e-83 1.33417e-83 3.18916e-84 7.46193e-85 1.70962e-85 3.83691e-86 8.43828e-87 1.81914e-87 3.84558e-88 7.9742e-89 1.62247e-89 3.24015e-90 6.35303e-91 1.22331e-91 2.31169e-92 4.1605e-93 0 
0 3.9964e-131 3.93452e-130 3.79565e-129 3.62358e-128 3.4233e-127 3.20013e-126 2.95979e-125 2.7082e-124 2.45121e-123 2.19439e-122 1.94283e-121 1.70095e-120 1.47244e-119 1.26015e-118 1.06609e-117 8.91452e-117 7.36685e-116 6.01577e-115 4.85366e-114 3.86865e-113 3.04581e-112 2.36831e-111 1.81847e-110 1.37861e-109 1.03177e-108 7.62191e-108 5.55669e-107 3.99735e-106 2.83701e-105 1.98614e-104 1.37134e-103 9.33668e-103 6.26718e-102 4.14673e-101 2.70403e-100 1.73742e-99 1.09977e-98 6.85664e-98 4.20964e-97 2.54453e-96 1.51393e-95 8.86425e-95 5.10638e-94 2.89345e-93 1.61229e-92 8.83257e-92 4.7559e-91 2.51632e-90 1.30787e-89 6.67585e-89 3.34553e-88 1.64555e-87 7.94154e-87 3.75934e-86 1.74497e-85 7.93933e-85 3.53955e-84 1.5457e-83 6.60918e-83 2.766e-82 1.13257e-81 4.53531e-81 1.77539e-80 6.791e-80 2.53707e-79 9.25302e-79 3.29291e-78 1.14289e-77 3.86663e-77 1.27449e-76 4.09047e-76 1.27762e-75 3.88125e-75 1.14609e-74 3.2876e-74 9.15543e-74 2.47364e-73 6.47988e-73 1.64466e-72 4.04176e-72 9.61052e-72 2.20954e-71 4.90834e-71 1.05278e-70 2.17882e-70 4.34797e-70 8.36101e-70 1.54837e-69 2.7599e-69 4.73268e-69 7.80447e-69 1.23732e-68 1.88568e-68 2.76263e-68 3.89196e-68 5.27528e-68 6.88562e-68 8.66604e-68 1.0535e-67 1.23982e-67 1.4164e-67 1.57589e-67 1.71375e-67 1.82857e-67 1.92163e-67 1.99598e-67 2.05542e-67 2.1037e-67 2.14406e-67 2.17908e-67 2.21052e-67 2.23926e-67 2.26503e-67 2.28614e-67 2.29946e-67 2.30069e-67 2.28495e-67 2.24786e-67 2.18664e-67 2.10127e-67 1.99519e-67 1.87551e-67 1.75243e-67 1.63791e-67 1.54381e-67 1.47989e-67 1.45211e-67 1.46165e-67 1.5049e-67 1.5744e-67 1.6604e-67 1.75273e-67 1.84246e-67 1.92301e-67 1.99056e-67 2.04381e-67 2.08331e-67 2.11052e-67 2.12711e-67 2.13448e-67 2.13368e-67 2.12562e-67 2.11139e-67 2.09248e-67 2.0708e-67 2.04855e-67 2.02778e-67 2.01012e-67 1.99646e-67 1.98698e-67 1.98136e-67 1.97915e-67 1.98021e-67 1.98493e-67 1.9943e-67 2.00962e-67 2.03202e-67 2.06188e-67 2.09842e-67 2.13956e-67 2.18224e-67 2.22313e-67 2.25957e-67 2.29045e-67 2.31671e-67 2.34117e-67 2.36773e-67 2.39998e-67 2.43976e-67 2.48592e-67 2.53405e-67 2.57709e-67 2.60697e-67 2.61665e-67 2.60213e-67 2.56367e-67 2.50591e-67 2.43684e-67 2.366e-67 2.30228e-67 2.25216e-67 2.21845e-67 2.19997e-67 2.19194e-67 2.18701e-67 2.17663e-67 2.15267e-67 2.10888e-67 2.04196e-67 1.95209e-67 1.84258e-67 1.71894e-67 1.58735e-67 1.4533e-67 1.32051e-67 1.19062e-67 1.06356e-67 9.38513e-68 8.14922e-68 6.9329e-68 5.75436e-68 4.64209e-68 3.62819e-68 2.74058e-68 1.99695e-68 1.40184e-68 9.47266e-69 6.15859e-69 3.85167e-69 2.31738e-69 1.34159e-69 7.47598e-70 4.01183e-70 2.0743e-70 1.03397e-70 4.9719e-71 2.30779e-71 1.03471e-71 4.48419e-72 1.87969e-72 7.62638e-73 2.99691e-73 1.14141e-73 4.21602e-74 1.51125e-74 5.26039e-75 1.77914e-75 5.85026e-76 1.87139e-76 5.8267e-77 1.76682e-77 5.22037e-78 1.50376e-78 4.22514e-79 1.15852e-79 3.10146e-80 8.11022e-81 2.0725e-81 5.17775e-82 1.26518e-82 3.02483e-83 7.07884e-84 1.62218e-84 3.64143e-85 8.01005e-86 1.72719e-86 3.65203e-87 7.57457e-88 1.54151e-88 3.0792e-89 6.03889e-90 1.1631e-90 2.19846e-91 3.95764e-92 0 
0 3.81452e-130 3.75415e-129 3.62039e-128 3.45505e-127 3.26296e-126 3.04918e-125 2.81921e-124 2.57868e-123 2.33318e-122 2.08802e-121 1.84802e-120 1.6174e-119 1.39964e-118 1.19745e-117 1.0127e-116 8.46528e-116 6.9933e-115 5.70885e-114 4.60452e-113 3.66888e-112 2.88759e-111 2.24456e-110 1.7229e-109 1.30574e-108 9.76926e-108 7.21449e-107 5.25802e-106 3.78132e-105 2.68286e-104 1.87765e-103 1.29604e-102 8.82134e-102 5.9195e-101 3.91552e-100 2.55251e-99 1.63959e-98 1.03754e-97 6.46683e-97 3.96919e-96 2.39852e-95 1.42667e-94 8.35099e-94 4.8094e-93 2.72444e-92 1.51772e-91 8.31228e-91 4.4746e-90 2.36688e-89 1.22989e-88 6.27626e-88 3.14452e-87 1.5463e-86 7.46083e-86 3.53096e-85 1.63859e-84 7.45366e-84 3.3223e-83 1.45051e-82 6.20089e-82 2.5946e-81 1.06217e-80 4.25258e-80 1.66439e-79 6.36526e-79 2.37758e-78 8.66985e-78 3.08485e-77 1.0705e-76 3.62115e-76 1.19339e-75 3.82963e-75 1.19598e-74 3.63274e-74 1.07257e-73 3.07632e-73 8.56602e-73 2.31413e-72 6.06138e-72 1.53829e-71 3.77998e-71 8.98725e-71 2.06607e-70 4.58926e-70 9.84275e-70 2.03689e-69 4.06449e-69 7.81544e-69 1.44726e-68 2.57955e-68 4.42322e-68 7.29388e-68 1.15634e-67 1.76221e-67 2.58167e-67 3.63695e-67 4.92956e-67 6.4343e-67 8.09797e-67 9.84438e-67 1.15854e-66 1.32354e-66 1.47257e-66 1.60138e-66 1.70866e-66 1.79559e-66 1.86503e-66 1.92053e-66 1.9656e-66 2.00328e-66 2.03595e-66 2.06529e-66 2.09212e-66 2.11616e-66 2.13586e-66 2.14829e-66 2.14943e-66 2.13474e-66 2.10013e-66 2.04301e-66 1.96335e-66 1.86438e-66 1.75273e-66 1.63792e-66 1.53109e-66 1.44333e-66 1.38373e-66 1.35785e-66 1.3668e-66 1.4072e-66 1.47208e-66 1.55236e-66 1.63853e-66 1.72227e-66 1.79744e-66 1.86047e-66 1.91016e-66 1.947e-66 1.97237e-66 1.98783e-66 1.99467e-66 1.9939e-66 1.98636e-66 1.97308e-66 1.95543e-66 1.93522e-66 1.91448e-66 1.89514e-66 1.8787e-66 1.86599e-66 1.85717e-66 1.85195e-66 1.8499e-66 1.85089e-66 1.85529e-66 1.86401e-66 1.87827e-66 1.89913e-66 1.92694e-66 1.96098e-66 1.9993e-66 2.03907e-66 2.07717e-66 2.11113e-66 2.13992e-66 2.1644e-66 2.18721e-66 2.21198e-66 2.24206e-66 2.27914e-66 2.32217e-66 2.36702e-66 2.40714e-66 2.43498e-66 2.44399e-66 2.43046e-66 2.39462e-66 2.34079e-66 2.27644e-66 2.21041e-66 2.15103e-66 2.1043e-66 2.07286e-66 2.05561e-66 2.04809e-66 2.04344e-66 2.0337e-66 2.0113e-66 1.9704e-66 1.90794e-66 1.82406e-66 1.72187e-66 1.60647e-66 1.48365e-66 1.35851e-66 1.23452e-66 1.1132e-66 9.94498e-67 8.77638e-67 7.62114e-67 6.48399e-67 5.38201e-67 4.3419e-67 3.39369e-67 2.56355e-67 1.86802e-67 1.31138e-67 8.86172e-68 5.76162e-68 3.60354e-68 2.16818e-68 1.25526e-68 6.99525e-69 3.75403e-69 1.9411e-69 9.67625e-70 4.65313e-70 2.15995e-70 9.68487e-71 4.19747e-71 1.75962e-71 7.13979e-72 2.80593e-72 1.06876e-72 3.94805e-73 1.41534e-73 4.92702e-74 1.66657e-74 5.48073e-75 1.75339e-75 5.46001e-76 1.65584e-76 4.89316e-77 1.40971e-77 3.96147e-78 1.08639e-78 2.90883e-79 7.60778e-80 1.94444e-80 4.85868e-81 1.18743e-81 2.83949e-82 6.64637e-83 1.52338e-83 3.42034e-84 7.5253e-85 1.62301e-85 3.4325e-86 7.12082e-87 1.4495e-87 2.89607e-88 5.68108e-89 1.09445e-89 2.06919e-90 3.7258e-91 0 
0 3.60294e-129 3.54471e-128 3.41722e-127 3.26002e-126 3.07771e-125 2.87508e-124 2.65732e-123 2.42977e-122 2.1977e-121 1.9661e-120 1.73953e-119 1.52193e-118 1.31659e-117 1.12601e-116 9.51973e-116 7.95502e-115 6.5696e-114 5.36121e-113 4.32273e-112 3.44323e-111 2.70912e-110 2.10516e-109 1.61538e-108 1.22387e-107 9.15383e-107 6.75789e-106 4.92372e-105 3.53981e-104 2.51074e-103 1.75666e-102 1.21216e-101 8.24795e-101 5.53309e-100 3.65885e-99 2.38449e-98 1.53122e-97 9.68689e-97 6.03597e-96 3.7037e-95 2.23747e-94 1.3305e-93 7.78599e-93 4.48281e-92 2.53876e-91 1.41391e-90 7.74174e-90 4.16641e-89 2.2033e-88 1.14461e-87 5.83963e-87 2.92506e-86 1.43804e-85 6.93688e-85 3.28225e-84 1.52283e-83 6.92558e-83 3.08626e-82 1.34717e-81 5.75794e-81 2.40877e-80 9.85908e-80 3.94649e-79 1.54431e-78 5.90494e-78 2.20525e-77 8.04009e-77 2.8603e-76 9.92421e-76 3.35652e-75 1.10601e-74 3.54874e-74 1.10811e-73 3.36539e-73 9.93509e-73 2.84922e-72 7.93277e-72 2.14283e-71 5.61212e-71 1.42414e-70 3.49917e-70 8.31888e-70 1.91227e-69 4.24732e-69 9.10876e-69 1.88488e-68 3.76094e-68 7.23138e-68 1.33904e-67 2.38656e-67 4.09214e-67 6.74769e-67 1.06971e-66 1.63016e-66 2.38817e-66 3.36429e-66 4.55994e-66 5.9518e-66 7.49066e-66 9.10606e-66 1.07165e-65 1.22427e-65 1.36212e-65 1.48126e-65 1.58047e-65 1.66086e-65 1.72505e-65 1.77635e-65 1.818e-65 1.85281e-65 1.88299e-65 1.9101e-65 1.93487e-65 1.95708e-65 1.97527e-65 1.98675e-65 1.9878e-65 1.97423e-65 1.94225e-65 1.8895e-65 1.81593e-65 1.72453e-65 1.62143e-65 1.51541e-65 1.41678e-65 1.33575e-65 1.28074e-65 1.25689e-65 1.26519e-65 1.30255e-65 1.36251e-65 1.43668e-65 1.51629e-65 1.59365e-65 1.66308e-65 1.7213e-65 1.76719e-65 1.80121e-65 1.82463e-65 1.83888e-65 1.84518e-65 1.84444e-65 1.83746e-65 1.82518e-65 1.80888e-65 1.79023e-65 1.7711e-65 1.75327e-65 1.73812e-65 1.72641e-65 1.7183e-65 1.71349e-65 1.71162e-65 1.71253e-65 1.71658e-65 1.72462e-65 1.73776e-65 1.75698e-65 1.78262e-65 1.81401e-65 1.84935e-65 1.88602e-65 1.92116e-65 1.95249e-65 1.97905e-65 2.00165e-65 2.02271e-65 2.04557e-65 2.07333e-65 2.10755e-65 2.14725e-65 2.18863e-65 2.22564e-65 2.25131e-65 2.25963e-65 2.24714e-65 2.21408e-65 2.16443e-65 2.10507e-65 2.04416e-65 1.98938e-65 1.94626e-65 1.91724e-65 1.90129e-65 1.89432e-65 1.88998e-65 1.88094e-65 1.86021e-65 1.8224e-65 1.76469e-65 1.6872e-65 1.5928e-65 1.4862e-65 1.37272e-65 1.25709e-65 1.14249e-65 1.03032e-65 9.20543e-66 8.1244e-66 7.05546e-66 6.00305e-66 4.98305e-66 4.02021e-66 3.14237e-66 2.37379e-66 1.72981e-66 1.2144e-66 8.20663e-67 5.33588e-67 3.33739e-67 2.00811e-67 1.16264e-67 6.47933e-68 3.4773e-68 1.79809e-68 8.96377e-69 4.31072e-69 2.00111e-69 8.97317e-70 3.88925e-70 1.63052e-70 6.61641e-71 2.60043e-71 9.90569e-72 3.65951e-72 1.31202e-72 4.5678e-73 1.54522e-73 5.08221e-74 1.62608e-74 5.06418e-75 1.536e-75 4.5396e-76 1.30803e-76 3.67627e-77 1.00833e-77 2.70024e-78 7.06338e-79 1.8056e-79 4.51253e-80 1.10303e-80 2.63815e-81 6.17627e-82 1.4159e-82 3.17967e-83 6.99721e-84 1.50944e-84 3.19298e-85 6.62537e-86 1.34895e-86 2.69578e-87 5.28941e-88 1.01924e-88 1.92745e-89 3.47138e-90 0 
0 3.36728e-128 3.31173e-127 3.1915e-126 3.04364e-125 2.87243e-124 2.68239e-123 2.47838e-122 2.26538e-121 2.04831e-120 1.83184e-119 1.62019e-118 1.41705e-117 1.22545e-116 1.04772e-115 8.85484e-115 7.39697e-114 6.10674e-113 4.98187e-112 4.01556e-111 3.19753e-110 2.51499e-109 1.95369e-108 1.49868e-107 1.1351e-106 8.48719e-106 6.2638e-105 4.56232e-104 3.27899e-103 2.32504e-102 1.62624e-101 1.12183e-100 7.63104e-100 5.11773e-99 3.3832e-98 2.20421e-97 1.41505e-96 8.94941e-96 5.57488e-95 3.41982e-94 2.0654e-93 1.22785e-92 7.18336e-92 4.13474e-91 2.34102e-90 1.30345e-89 7.13509e-89 3.83896e-88 2.02964e-87 1.05413e-86 5.37675e-86 2.69256e-85 1.32344e-84 6.38257e-84 3.0193e-83 1.40052e-82 6.36798e-82 2.83718e-81 1.23819e-80 5.29109e-80 2.21304e-79 9.0562e-79 3.62443e-78 1.41803e-77 5.42113e-77 2.02423e-76 7.37887e-76 2.62466e-75 9.1052e-75 3.07906e-74 1.01445e-73 3.25449e-73 1.0161e-72 3.08556e-72 9.10791e-72 2.61171e-71 7.27071e-71 1.96379e-70 5.14273e-70 1.30491e-69 3.20595e-69 7.62119e-69 1.75177e-68 3.89056e-68 8.34314e-68 1.72635e-67 3.44445e-67 6.62252e-67 1.22624e-66 2.18544e-66 3.74717e-66 6.17867e-66 9.79481e-66 1.49262e-65 2.18663e-65 3.08034e-65 4.17503e-65 5.44936e-65 6.85828e-65 8.33727e-65 9.8117e-65 1.12091e-64 1.24711e-64 1.35618e-64 1.447e-64 1.52057e-64 1.57932e-64 1.62625e-64 1.66434e-64 1.69617e-64 1.72376e-64 1.74854e-64 1.77119e-64 1.79149e-64 1.80812e-64 1.81861e-64 1.81957e-64 1.80715e-64 1.77792e-64 1.7297e-64 1.66245e-64 1.57891e-64 1.48467e-64 1.38777e-64 1.29763e-64 1.2236e-64 1.17335e-64 1.15158e-64 1.15921e-64 1.1934e-64 1.24824e-64 1.31607e-64 1.38887e-64 1.4596e-64 1.52308e-64 1.5763e-64 1.61825e-64 1.64934e-64 1.67073e-64 1.68374e-64 1.68948e-64 1.68878e-64 1.68238e-64 1.67115e-64 1.65625e-64 1.63921e-64 1.62175e-64 1.60548e-64 1.59166e-64 1.58099e-64 1.5736e-64 1.56922e-64 1.56752e-64 1.56835e-64 1.57205e-64 1.57938e-64 1.59136e-64 1.6089e-64 1.6323e-64 1.66094e-64 1.6932e-64 1.72667e-64 1.75875e-64 1.78735e-64 1.81161e-64 1.83225e-64 1.85148e-64 1.87237e-64 1.89774e-64 1.92899e-64 1.96525e-64 2.00303e-64 2.03682e-64 2.06026e-64 2.06785e-64 2.05645e-64 2.02626e-64 1.98093e-64 1.92674e-64 1.87113e-64 1.8211e-64 1.78172e-64 1.75521e-64 1.74062e-64 1.73421e-64 1.73021e-64 1.72191e-64 1.70292e-64 1.66833e-64 1.61555e-64 1.5447e-64 1.45839e-64 1.36092e-64 1.25715e-64 1.15139e-64 1.04655e-64 9.43912e-65 8.43424e-65 7.44441e-65 6.46539e-65 5.50133e-65 4.5668e-65 3.68454e-65 2.88011e-65 2.17575e-65 1.58555e-65 1.11316e-65 7.5227e-66 4.89135e-66 3.05945e-66 1.84094e-66 1.06588e-66 5.94033e-67 3.18815e-67 1.64863e-67 8.21903e-68 3.95275e-68 1.83502e-68 8.22881e-69 3.56681e-69 1.49543e-69 6.06862e-70 2.3853e-70 9.08686e-71 3.35727e-71 1.20376e-71 4.19128e-72 1.41799e-72 4.66421e-73 1.4925e-73 4.6487e-74 1.41015e-74 4.16818e-75 1.20117e-75 3.37641e-76 9.26214e-77 2.48072e-77 6.49016e-78 1.65934e-78 4.1477e-79 1.01403e-79 2.42571e-80 5.67997e-81 1.30238e-81 2.92529e-82 6.43871e-83 1.38924e-83 2.93934e-84 6.10038e-85 1.24233e-85 2.48327e-86 4.87355e-87 9.39319e-88 1.77674e-88 3.20066e-89 0 
0 3.11359e-127 3.06118e-126 2.94903e-125 2.81143e-124 2.65237e-123 2.47604e-122 2.28694e-121 2.08968e-120 1.88881e-119 1.68863e-118 1.49302e-117 1.30539e-116 1.12851e-115 9.64519e-115 8.14902e-114 6.80513e-113 5.6163e-112 4.58028e-111 3.69068e-110 2.93789e-109 2.31004e-108 1.79391e-107 1.37568e-106 1.04161e-105 7.78577e-105 5.74435e-104 4.1827e-103 3.00524e-102 2.13028e-101 1.48957e-100 1.02725e-99 6.98561e-99 4.68351e-98 3.09525e-97 2.01603e-96 1.29387e-95 8.18075e-95 5.09463e-94 3.12436e-93 1.88645e-92 1.12116e-91 6.55745e-91 3.77348e-90 2.13593e-89 1.18895e-88 6.5067e-88 3.49999e-87 1.84997e-86 9.60589e-86 4.89846e-85 2.45248e-84 1.20515e-83 5.81083e-83 2.74823e-82 1.27451e-81 5.79381e-81 2.58083e-80 1.12609e-79 4.81111e-79 2.0119e-78 8.23157e-78 3.2938e-77 1.28845e-76 4.9249e-76 1.83864e-75 6.70128e-75 2.38327e-74 8.2666e-74 2.79508e-73 9.20758e-73 2.95354e-72 9.22021e-72 2.79955e-71 8.26276e-71 2.36911e-70 6.59468e-70 1.78103e-69 4.66371e-69 1.18326e-68 2.90686e-68 6.90971e-68 1.58812e-67 3.52691e-67 7.56288e-67 1.56482e-66 3.12202e-66 6.00235e-66 1.11137e-65 1.98065e-65 3.39592e-65 5.59936e-65 8.87626e-65 1.35262e-64 1.98151e-64 2.79134e-64 3.7833e-64 4.93803e-64 6.21472e-64 7.55492e-64 8.89098e-64 1.01572e-63 1.13007e-63 1.2289e-63 1.31118e-63 1.37782e-63 1.43102e-63 1.47351e-63 1.50799e-63 1.53679e-63 1.56176e-63 1.58418e-63 1.60468e-63 1.62304e-63 1.63808e-63 1.64757e-63 1.64843e-63 1.6372e-63 1.61075e-63 1.56711e-63 1.50628e-63 1.43071e-63 1.34546e-63 1.25782e-63 1.17629e-63 1.10934e-63 1.06391e-63 1.04425e-63 1.05119e-63 1.08215e-63 1.1318e-63 1.19319e-63 1.25908e-63 1.32308e-63 1.38052e-63 1.42867e-63 1.46662e-63 1.49474e-63 1.51408e-63 1.52583e-63 1.531e-63 1.53035e-63 1.52455e-63 1.51437e-63 1.5009e-63 1.4855e-63 1.46971e-63 1.45502e-63 1.44255e-63 1.43292e-63 1.42626e-63 1.42232e-63 1.42078e-63 1.42154e-63 1.42487e-63 1.43149e-63 1.44231e-63 1.45814e-63 1.47927e-63 1.50514e-63 1.53428e-63 1.56451e-63 1.59349e-63 1.61934e-63 1.64126e-63 1.65991e-63 1.67731e-63 1.6962e-63 1.71913e-63 1.74738e-63 1.78015e-63 1.81429e-63 1.84482e-63 1.866e-63 1.87285e-63 1.86255e-63 1.83528e-63 1.79433e-63 1.74535e-63 1.69511e-63 1.6499e-63 1.61431e-63 1.59033e-63 1.57712e-63 1.5713e-63 1.56765e-63 1.5601e-63 1.54289e-63 1.51157e-63 1.4638e-63 1.39969e-63 1.32159e-63 1.23339e-63 1.13948e-63 1.04375e-63 9.4883e-64 8.55875e-64 7.6484e-64 6.7514e-64 5.86396e-64 4.98988e-64 4.14244e-64 3.34231e-64 2.6127e-64 1.9738e-64 1.43843e-64 1.0099e-64 6.82507e-65 4.43787e-65 2.77589e-65 1.67035e-65 9.67146e-66 5.39021e-66 2.89299e-66 1.49605e-66 7.45862e-67 3.58718e-67 1.66538e-67 7.4684e-68 3.23737e-68 1.35738e-68 5.50869e-69 2.16535e-69 8.24951e-70 3.04812e-70 1.093e-70 3.80595e-71 1.28774e-71 4.23618e-72 1.35568e-72 4.22298e-73 1.28115e-73 3.78736e-74 1.09156e-74 3.06872e-75 8.41925e-76 2.2553e-76 5.90128e-77 1.50902e-77 3.77256e-78 9.22469e-79 2.20707e-79 5.16895e-80 1.18542e-80 2.6631e-81 5.86276e-82 1.26522e-82 2.6775e-83 5.55812e-84 1.13214e-84 2.26352e-85 4.44326e-86 8.56583e-87 1.62062e-87 2.92007e-88 0 
0 2.84813e-126 2.79923e-125 2.69575e-124 2.56908e-123 2.4229e-122 2.26106e-121 2.08767e-120 1.90695e-119 1.72306e-118 1.53993e-117 1.3611e-116 1.18965e-115 1.02811e-114 8.78419e-114 7.41914e-113 6.1936e-112 5.10995e-111 4.16599e-110 3.35578e-109 2.67044e-108 2.09909e-107 1.62958e-106 1.24927e-105 9.45601e-105 7.06595e-104 5.21167e-103 3.79368e-102 2.72491e-101 1.93099e-100 1.34982e-99 9.30596e-99 6.3265e-98 4.24038e-97 2.80159e-96 1.82424e-95 1.17046e-94 7.39836e-94 4.60612e-93 2.82401e-92 1.70464e-91 1.01284e-90 5.92234e-90 3.40712e-89 1.92807e-88 1.07297e-87 5.87054e-87 3.15702e-86 1.66829e-85 8.66046e-85 4.41532e-84 2.21008e-83 1.0858e-82 5.23418e-82 2.47497e-81 1.14754e-80 5.21554e-80 2.32278e-79 1.0133e-78 4.32838e-78 1.80969e-77 7.40293e-77 2.96171e-76 1.15834e-75 4.42687e-75 1.65244e-74 6.02173e-74 2.14128e-73 7.42617e-73 2.51058e-72 8.26929e-72 2.65223e-71 8.27864e-71 2.51338e-70 7.41736e-70 2.1265e-69 5.9188e-69 1.59836e-68 4.18502e-68 1.06173e-67 2.60812e-67 6.19919e-67 1.42474e-66 3.16388e-66 6.78409e-66 1.40362e-65 2.80029e-65 5.38361e-65 9.96775e-65 1.77637e-64 3.04561e-64 5.02164e-64 7.9603e-64 1.21302e-63 1.77699e-63 2.50322e-63 3.39276e-63 4.42827e-63 5.57315e-63 6.77499e-63 7.9731e-63 9.10859e-63 1.0134e-62 1.10201e-62 1.17578e-62 1.23552e-62 1.2832e-62 1.32127e-62 1.35215e-62 1.37794e-62 1.4003e-62 1.42037e-62 1.43872e-62 1.45516e-62 1.46863e-62 1.47712e-62 1.47788e-62 1.46782e-62 1.44414e-62 1.40507e-62 1.35061e-62 1.28296e-62 1.20665e-62 1.1282e-62 1.05523e-62 9.95318e-63 9.54678e-63 9.37108e-63 9.43356e-63 9.71107e-63 1.01559e-62 1.07057e-62 1.12957e-62 1.18689e-62 1.23832e-62 1.28143e-62 1.3154e-62 1.34057e-62 1.35787e-62 1.36837e-62 1.37299e-62 1.37239e-62 1.36718e-62 1.35806e-62 1.346e-62 1.33222e-62 1.31811e-62 1.30498e-62 1.29384e-62 1.28525e-62 1.2793e-62 1.27579e-62 1.27442e-62 1.2751e-62 1.27808e-62 1.28398e-62 1.29365e-62 1.3078e-62 1.32668e-62 1.3498e-62 1.37584e-62 1.40287e-62 1.42878e-62 1.45189e-62 1.47149e-62 1.48818e-62 1.50374e-62 1.52064e-62 1.54115e-62 1.56643e-62 1.59573e-62 1.62627e-62 1.65356e-62 1.6725e-62 1.67863e-62 1.66942e-62 1.64503e-62 1.60841e-62 1.56463e-62 1.5197e-62 1.47927e-62 1.44743e-62 1.42598e-62 1.41415e-62 1.40892e-62 1.40561e-62 1.39882e-62 1.38339e-62 1.35532e-62 1.31254e-62 1.25513e-62 1.1852e-62 1.10622e-62 1.02212e-62 9.36368e-63 8.51326e-63 7.68017e-63 6.86402e-63 6.05958e-63 5.26348e-63 4.47919e-63 3.71868e-63 3.00053e-63 2.34561e-63 1.77209e-63 1.29146e-63 9.06742e-64 6.12809e-64 3.98477e-64 2.49253e-64 1.49989e-64 8.68464e-65 4.84034e-65 2.59794e-65 1.34351e-65 6.69829e-66 3.2216e-66 1.49571e-66 6.70775e-67 2.90776e-67 1.21924e-67 4.94832e-68 1.94518e-68 7.41117e-69 2.73854e-69 9.82059e-70 3.4199e-70 1.15722e-70 3.80715e-71 1.21849e-71 3.79603e-72 1.15175e-72 3.40521e-73 9.81541e-74 2.75976e-74 7.57261e-75 2.02879e-75 5.30936e-76 1.35786e-76 3.3952e-77 8.30333e-78 1.98697e-78 4.65427e-79 1.06758e-79 2.39881e-80 5.28193e-81 1.1401e-81 2.41319e-82 5.01049e-83 1.02081e-83 2.04136e-84 4.00806e-85 7.72857e-86 1.46255e-86 2.63582e-87 0 
0 2.57707e-125 2.53197e-124 2.43753e-123 2.3222e-122 2.18932e-121 2.04239e-120 1.88513e-119 1.72136e-118 1.55485e-117 1.38913e-116 1.2274e-115 1.07244e-114 9.26509e-114 7.91352e-113 6.6816e-112 5.57608e-111 4.59899e-110 3.74822e-109 3.01829e-108 2.40112e-107 1.88679e-106 1.46431e-105 1.12222e-104 8.49174e-104 6.34346e-103 4.67736e-102 3.40371e-101 2.44407e-100 1.73146e-99 1.20998e-98 8.33947e-98 5.66781e-97 3.7978e-96 2.50847e-95 1.63292e-94 1.04741e-93 6.61875e-93 4.11963e-92 2.52506e-91 1.52378e-90 9.05143e-90 5.29123e-89 3.04327e-88 1.72173e-87 9.57906e-87 5.2397e-86 2.81709e-85 1.48831e-84 7.72432e-84 3.93715e-83 1.97029e-82 9.67777e-82 4.66425e-81 2.20502e-80 1.02217e-79 4.64477e-79 2.06817e-78 9.02056e-78 3.85248e-77 1.61043e-76 6.58664e-76 2.63469e-75 1.03027e-74 3.9368e-74 1.46928e-73 5.35349e-73 1.90339e-72 6.60025e-72 2.23107e-71 7.34775e-71 2.35639e-70 7.35439e-70 2.23254e-69 6.58792e-69 1.88853e-68 5.256e-68 1.41925e-67 3.7158e-67 9.42626e-67 2.31539e-66 5.5031e-66 1.26469e-65 2.80834e-65 6.02147e-65 1.24579e-64 2.48532e-64 4.77793e-64 8.84611e-64 1.57645e-63 2.70278e-63 4.45632e-63 7.06407e-63 1.07644e-62 1.57689e-62 2.22133e-62 3.01069e-62 3.92958e-62 4.94553e-62 6.01201e-62 7.07519e-62 8.08277e-62 8.99266e-62 9.7789e-62 1.04333e-61 1.09632e-61 1.1386e-61 1.17235e-61 1.19972e-61 1.22258e-61 1.24238e-61 1.26016e-61 1.27642e-61 1.29098e-61 1.3029e-61 1.31042e-61 1.31109e-61 1.30218e-61 1.2812e-61 1.24659e-61 1.19835e-61 1.13842e-61 1.07084e-61 1.00135e-61 9.36731e-62 8.83675e-62 8.47699e-62 8.32164e-62 8.37728e-62 8.62341e-62 9.0177e-62 9.50501e-62 1.00278e-61 1.05357e-61 1.09914e-61 1.13733e-61 1.16742e-61 1.18971e-61 1.20502e-61 1.21432e-61 1.21838e-61 1.21784e-61 1.21321e-61 1.20513e-61 1.19445e-61 1.18225e-61 1.16977e-61 1.15816e-61 1.14831e-61 1.14072e-61 1.13547e-61 1.13237e-61 1.13117e-61 1.13177e-61 1.1344e-61 1.13962e-61 1.14816e-61 1.16067e-61 1.17736e-61 1.19781e-61 1.22084e-61 1.24475e-61 1.26767e-61 1.28811e-61 1.30546e-61 1.32023e-61 1.334e-61 1.34897e-61 1.36713e-61 1.38949e-61 1.41543e-61 1.44245e-61 1.4666e-61 1.48335e-61 1.48878e-61 1.48063e-61 1.45905e-61 1.42665e-61 1.38791e-61 1.34816e-61 1.31239e-61 1.28421e-61 1.26522e-61 1.25473e-61 1.25008e-61 1.24712e-61 1.24108e-61 1.22738e-61 1.2025e-61 1.16459e-61 1.11372e-61 1.05176e-61 9.8178e-62 9.07255e-62 8.31255e-62 7.55861e-62 6.81982e-62 6.09579e-62 5.3819e-62 4.67521e-62 3.97884e-62 3.30346e-62 2.66562e-62 2.08388e-62 1.5744e-62 1.14742e-62 8.05631e-63 5.44487e-63 3.54059e-63 2.21473e-63 1.33274e-63 7.717e-64 4.30112e-64 2.30857e-64 1.19388e-64 5.95245e-65 2.86295e-65 1.32923e-65 5.96135e-66 2.58429e-66 1.08364e-66 4.3982e-67 1.72902e-67 6.58791e-68 2.43448e-68 8.73075e-69 3.04059e-69 1.02894e-69 3.38542e-70 1.08361e-70 3.37615e-71 1.02446e-71 3.02919e-72 8.73254e-73 2.45559e-73 6.73884e-74 1.80565e-74 4.72607e-75 1.20886e-75 3.0231e-76 7.39447e-77 1.76977e-77 4.1462e-78 9.51206e-79 2.13771e-79 4.70789e-80 1.01639e-80 2.15176e-81 4.46857e-82 9.10592e-83 1.82134e-83 3.57683e-84 6.89857e-85 1.30577e-85 2.35378e-86 0 