# vtk DataFile Version 3.0
Gray-Scott Simulation Output
ASCII
DATASET STRUCTURED_POINTS
DIMENSIONS 256 256 1
SPACING 1.0 1.0 1.0
ORIGIN 0 0 0
POINT_DATA 65536
SCALARS u double
LOOKUP_TABLE default
0 0 0 0 0 0 0 0 0 0 0 0 0 0 0 0 0 0 0 0 0 0 0 0 0 0 0 0 0 0 0 0 0 0 0 0 0 0 0 0 0 0 0 0 0 0 0 0 0 0 0 0 0 0 0 0 0 0 0 0 0 0 0 0 0 0 0 0 0 0 0 0 0 0 0 0 0 0 0 0 0 0 0 0 0 0 0 0 0 0 0 0 0 0 0 0 0 0 0 0 0 0 0 0 0 0 0 0 0 0 0 0 0 0 0 0 0 0 0 0 0 0 0 0 0 0 0 0 0 0 0 0 0 0 0 0 0 0 0 0 0 0 0 0 0 0 0 0 0 0 0 0 0 0 0 0 0 0 0 0 0 0 0 0 0 0 0 0 0 0 0 0 0 0 0 0 0 0 0 0 0 0 0 0 0 0 0 0 0 0 0 0 0 0 0 0 0 0 0 0 0 0 0 0 0 0 0 0 0 0 0 0 0 0 0 0 0 0 0 0 0 0 0 0 0 0 0 0 0 0 0 0 0 0 0 0 0 0 0 0 0 0 0 0 0 0 0 0 0 0 0 0 0 0 0 0 
0 1.25787e-130 1.19216e-129 1.1063e-128 1.01596e-127 9.23325e-127 8.30352e-126 7.38852e-125 6.50423e-124 5.6641e-123 4.87886e-122 4.15632e-121 3.50151e-120 2.91682e-119 2.40226e-118 1.95585e-117 1.574e-116 1.25191e-115 9.83986e-115 7.64175e-114 5.86314e-113 4.44367e-112 3.32635e-111 2.45895e-110 1.79483e-109 1.29338e-108 9.20008e-108 6.45884e-107 4.47452e-106 3.05843e-105 2.06223e-104 1.37148e-103 8.99464e-103 5.81621e-102 3.70749e-101 2.32929e-100 1.44207e-99 8.79603e-99 5.28488e-98 3.1271e-97 1.82186e-96 1.04487e-95 5.89775e-95 3.27556e-94 1.78962e-93 9.61619e-93 5.08051e-92 2.63853e-91 1.34664e-90 6.75244e-90 3.32557e-89 1.60821e-88 7.63422e-88 3.5563e-87 1.6252e-86 7.28369e-86 3.20027e-85 1.37804e-84 5.81335e-84 2.4017e-83 9.71356e-83 3.84445e-82 1.48838e-81 5.63426e-81 2.08458e-80 7.53474e-80 2.65943e-79 9.16174e-79 3.07911e-78 1.00906e-77 3.22277e-77 1.00262e-76 3.03667e-76 8.94905e-76 2.56463e-75 7.14307e-75 1.93241e-74 5.0746e-74 1.29277e-73 3.19287e-73 7.64018e-73 1.77013e-72 3.96832e-72 8.60249e-72 1.8021e-71 3.64582e-71 7.11888e-71 1.34083e-70 2.43471e-70 4.26012e-70 7.17984e-70 1.16516e-69 1.8203e-69 2.73751e-69 3.96343e-69 5.52623e-69 7.4248e-69 9.62123e-69 1.20397e-68 1.45739e-68 1.71016e-68 1.95043e-68 2.16855e-68 2.35842e-68 2.51787e-68 2.64817e-68 2.75301e-68 2.83722e-68 2.90572e-68 2.9629e-68 3.01222e-68 3.05609e-68 3.09558e-68 3.13018e-68 3.15757e-68 3.17358e-68 3.17263e-68 3.14854e-68 3.09591e-68 3.01149e-68 2.89566e-68 2.75325e-68 2.59376e-68 2.43054e-68 2.27906e-68 2.15463e-68 2.06979e-68 2.03224e-68 2.04358e-68 2.09933e-68 2.19003e-68 2.30322e-68 2.42578e-68 2.54597e-68 2.65497e-68 2.74738e-68 2.82107e-68 2.8763e-68 2.9147e-68 2.93831e-68 2.94903e-68 2.94841e-68 2.93789e-68 2.91907e-68 2.89404e-68 2.86536e-68 2.83585e-68 2.80816e-68 2.78439e-68 2.76575e-68 2.7526e-68 2.7447e-68 2.74162e-68 2.74332e-68 2.75033e-68 2.76389e-68 2.78553e-68 2.8165e-68 2.85712e-68 2.90626e-68 2.96123e-68 3.0182e-68 3.07309e-68 3.1227e-68 3.16575e-68 3.20343e-68 3.2392e-68 3.27768e-68 3.32304e-68 3.37718e-68 3.43834e-68 3.50083e-68 3.55577e-68 3.59315e-68 3.60435e-68 3.58451e-68 3.53406e-68 3.45884e-68 3.36888e-68 3.27615e-68 3.1919e-68 3.12439e-68 3.07729e-68 3.04918e-68 3.03402e-68 3.02245e-68 3.00358e-68 2.96699e-68 2.90466e-68 2.81231e-68 2.69e-68 2.54178e-68 2.37443e-68 2.19571e-68 2.01263e-68 1.83012e-68 1.65062e-68 1.47453e-68 1.30126e-68 1.13048e-68 9.63036e-69 8.01325e-69 6.48957e-69 5.09978e-69 3.87939e-69 2.85136e-69 2.02227e-69 1.38274e-69 9.11008e-70 5.78198e-70 3.53501e-70 2.08223e-70 1.18199e-70 6.46857e-71 3.41442e-71 1.73925e-71 8.55441e-72 4.06496e-72 1.86735e-72 8.29797e-73 3.56917e-73 1.48692e-73 6.00349e-74 2.35067e-74 8.9313e-75 3.29488e-75 1.18093e-75 4.11454e-76 1.39437e-76 4.59874e-77 1.47685e-77 4.62064e-78 1.40915e-78 4.19105e-79 1.2162e-79 3.44518e-80 9.53103e-81 2.57622e-81 6.8066e-82 1.75858e-82 4.4448e-83 1.09945e-83 2.66254e-84 6.31505e-85 1.46748e-85 3.3422e-86 7.4629e-87 1.63433e-87 3.51128e-88 7.40323e-89 1.53228e-89 3.11416e-90 6.21639e-91 1.21776e-91 2.26719e-92 0 
0 1.19113e-129 1.12855e-128 1.04693e-127 9.61128e-127 8.73208e-126 7.8503e-125 6.983e-124 6.14528e-123 5.34982e-122 4.60668e-121 3.92322e-120 3.3041e-119 2.75151e-118 2.26541e-117 1.84386e-116 1.48342e-115 1.17951e-114 9.26793e-114 7.19541e-113 5.51902e-112 4.18161e-111 3.12926e-110 2.31257e-109 1.68749e-108 1.21567e-107 8.64481e-107 6.06728e-106 4.20205e-105 2.87137e-104 1.93556e-103 1.28688e-102 8.43746e-102 5.45442e-101 3.47592e-100 2.18321e-99 1.35128e-98 8.24003e-98 4.94952e-97 2.92791e-96 1.70538e-95 9.77816e-95 5.51787e-94 3.06382e-93 1.67352e-92 8.99021e-92 4.74866e-91 2.4656e-90 1.25809e-89 6.30699e-89 3.10549e-88 1.50145e-87 7.12589e-87 3.31879e-86 1.51634e-85 6.79442e-85 2.9847e-84 1.28496e-83 5.41965e-83 2.23863e-82 9.05236e-82 3.58212e-81 1.38657e-80 5.24798e-80 1.94134e-79 7.01589e-79 2.47592e-78 8.52825e-78 2.86579e-77 9.3902e-77 2.99867e-76 9.32777e-76 2.82479e-75 8.32365e-75 2.38513e-74 6.64241e-74 1.79678e-73 4.71797e-73 1.2018e-72 2.96795e-72 7.10137e-72 1.64517e-71 3.68792e-71 7.99409e-71 1.67454e-70 3.38757e-70 6.61425e-70 1.24572e-69 2.26191e-69 3.9576e-69 6.66976e-69 1.08235e-68 1.69088e-68 2.54281e-68 3.68147e-68 5.133e-68 6.89639e-68 8.93643e-68 1.11827e-67 1.35365e-67 1.58842e-67 1.81157e-67 2.01416e-67 2.19049e-67 2.33856e-67 2.45955e-67 2.55688e-67 2.63504e-67 2.6986e-67 2.75165e-67 2.7974e-67 2.83809e-67 2.87472e-67 2.90681e-67 2.93221e-67 2.94706e-67 2.94616e-67 2.92382e-67 2.875e-67 2.79671e-67 2.68928e-67 2.55722e-67 2.40933e-67 2.25798e-67 2.11753e-67 2.00218e-67 1.92355e-67 1.88878e-67 1.89936e-67 1.95112e-67 2.03528e-67 2.1403e-67 2.25399e-67 2.36549e-67 2.46659e-67 2.55231e-67 2.62065e-67 2.67185e-67 2.70744e-67 2.72932e-67 2.73923e-67 2.73863e-67 2.72884e-67 2.71138e-67 2.68817e-67 2.66159e-67 2.63425e-67 2.60861e-67 2.58661e-67 2.56937e-67 2.55721e-67 2.5499e-67 2.54707e-67 2.54864e-67 2.55514e-67 2.56768e-67 2.58771e-67 2.61638e-67 2.65399e-67 2.69949e-67 2.7504e-67 2.80316e-67 2.854e-67 2.89996e-67 2.93984e-67 2.97477e-67 3.00792e-67 3.0436e-67 3.08564e-67 3.1358e-67 3.19248e-67 3.25037e-67 3.30126e-67 3.33589e-67 3.34626e-67 3.32788e-67 3.28115e-67 3.21147e-67 3.12814e-67 3.04223e-67 2.96418e-67 2.90162e-67 2.85795e-67 2.83187e-67 2.81777e-67 2.80699e-67 2.78942e-67 2.75543e-67 2.69758e-67 2.61189e-67 2.49843e-67 2.36094e-67 2.20569e-67 2.03989e-67 1.87e-67 1.70061e-67 1.53397e-67 1.37045e-67 1.20951e-67 1.05084e-67 8.95245e-68 7.44953e-68 6.03329e-68 4.7414e-68 3.6069e-68 2.65117e-68 1.88035e-68 1.28575e-68 8.47134e-69 5.37677e-69 3.28739e-69 1.93644e-69 1.09927e-69 6.01615e-70 3.17574e-70 1.61775e-70 7.95716e-71 3.78134e-71 1.73716e-71 7.71986e-72 3.32071e-72 1.3835e-72 5.58632e-73 2.18748e-73 8.31195e-74 3.06665e-74 1.09922e-74 3.83023e-75 1.29815e-75 4.28184e-76 1.37523e-76 4.3032e-77 1.3125e-77 3.90408e-78 1.13308e-78 3.21014e-79 8.88208e-80 2.40117e-80 6.34505e-81 1.63959e-81 4.14473e-82 1.0254e-82 2.48364e-83 5.89177e-84 1.36937e-84 3.11933e-85 6.96658e-86 1.52594e-86 3.27906e-87 6.91504e-88 1.43153e-88 2.91003e-89 5.81016e-90 1.13843e-90 2.11994e-91 0 
0 1.10435e-128 1.04599e-127 9.70023e-127 8.90229e-126 8.08529e-125 7.26643e-124 6.46153e-123 5.68452e-122 4.9471e-121 4.25854e-120 3.62556e-119 3.05244e-118 2.54114e-117 2.09154e-116 1.70181e-115 1.36871e-114 1.08796e-113 8.54593e-113 6.63283e-112 5.08595e-111 3.85231e-110 2.88196e-109 2.12917e-108 1.5532e-107 1.1186e-106 7.95217e-106 5.57952e-105 3.86312e-104 2.63901e-103 1.77842e-102 1.18207e-101 7.74808e-101 5.00737e-100 3.19016e-99 2.00318e-98 1.23951e-97 7.55645e-97 4.53771e-96 2.68359e-95 1.56267e-94 8.95761e-94 5.05355e-93 2.8053e-92 1.53193e-91 8.22759e-91 4.34479e-90 2.25537e-89 1.15055e-88 5.76655e-88 2.83874e-87 1.37218e-86 6.51094e-86 3.03173e-85 1.3849e-84 6.20417e-84 2.72485e-83 1.17287e-82 4.94589e-82 2.04256e-81 8.25798e-81 3.26719e-80 1.26445e-79 4.78496e-79 1.76977e-78 6.39481e-78 2.25639e-77 7.77093e-77 2.61093e-76 8.55394e-76 2.73126e-75 8.49486e-75 2.57224e-74 7.5786e-74 2.17139e-73 6.04654e-73 1.63543e-72 4.2939e-72 1.09368e-71 2.7007e-71 6.46144e-71 1.49681e-70 3.35511e-70 7.27221e-70 1.52324e-69 3.08132e-69 6.01599e-69 1.133e-68 2.05714e-68 3.59919e-68 6.06553e-68 9.84269e-68 1.53762e-67 2.31228e-67 3.34764e-67 4.66749e-67 6.27089e-67 8.12582e-67 1.01683e-66 1.23085e-66 1.44432e-66 1.64722e-66 1.83142e-66 1.99174e-66 2.12635e-66 2.23632e-66 2.32478e-66 2.39579e-66 2.45353e-66 2.5017e-66 2.54325e-66 2.58019e-66 2.61345e-66 2.64258e-66 2.66564e-66 2.67912e-66 2.6783e-66 2.658e-66 2.61367e-66 2.5426e-66 2.44507e-66 2.32519e-66 2.19094e-66 2.05356e-66 1.9261e-66 1.82141e-66 1.75008e-66 1.71856e-66 1.72822e-66 1.77527e-66 1.85172e-66 1.94711e-66 2.05036e-66 2.1516e-66 2.2434e-66 2.32123e-66 2.38327e-66 2.42974e-66 2.46204e-66 2.48187e-66 2.49084e-66 2.49026e-66 2.48135e-66 2.46549e-66 2.44442e-66 2.42031e-66 2.39551e-66 2.37228e-66 2.35235e-66 2.33674e-66 2.32574e-66 2.31913e-66 2.31657e-66 2.31799e-66 2.32388e-66 2.33524e-66 2.35339e-66 2.37937e-66 2.41345e-66 2.4547e-66 2.50084e-66 2.54867e-66 2.59477e-66 2.63644e-66 2.67261e-66 2.7043e-66 2.73438e-66 2.76675e-66 2.80489e-66 2.85039e-66 2.9018e-66 2.9543e-66 3.00045e-66 3.03185e-66 3.04125e-66 3.02458e-66 2.98221e-66 2.91903e-66 2.84346e-66 2.76556e-66 2.69477e-66 2.63803e-66 2.59841e-66 2.57471e-66 2.56188e-66 2.55203e-66 2.53603e-66 2.50512e-66 2.45255e-66 2.37473e-66 2.2717e-66 2.14685e-66 2.00587e-66 1.85529e-66 1.70097e-66 1.54707e-66 1.39563e-66 1.24698e-66 1.10064e-66 9.56317e-67 8.14766e-67 6.7802e-67 5.49145e-67 4.31574e-67 3.28321e-67 2.41333e-67 1.71172e-67 1.17048e-67 7.71212e-68 4.89505e-68 2.99296e-68 1.76307e-68 1.00089e-68 5.4779e-69 2.89173e-69 1.47313e-69 7.24614e-70 3.44361e-70 1.58208e-70 7.03107e-71 3.0246e-71 1.26021e-71 5.08882e-72 1.99281e-72 7.57281e-73 2.79417e-73 1.00164e-73 3.49051e-74 1.18313e-74 3.90284e-75 1.25364e-75 3.92317e-76 1.19673e-76 3.56016e-77 1.03339e-77 2.92812e-78 8.1029e-79 2.19084e-79 5.79015e-80 1.49643e-80 3.78347e-81 9.36178e-82 2.26793e-82 5.381e-83 1.25088e-83 2.84996e-84 6.3662e-85 1.3947e-85 2.99766e-86 6.32291e-87 1.30923e-87 2.66197e-88 5.31605e-89 1.04184e-89 1.94049e-90 0 
0 1.01324e-127 9.59379e-127 8.89409e-126 8.15977e-125 7.40849e-124 6.65601e-123 5.9168e-122 5.20361e-121 4.52712e-120 3.89576e-119 3.31565e-118 2.79063e-117 2.32244e-116 1.91094e-115 1.55437e-114 1.24974e-113 9.93085e-113 7.79831e-112 6.05071e-111 4.63818e-110 3.51209e-109 2.62664e-108 1.93997e-107 1.41476e-106 1.01859e-105 7.23911e-105 5.07774e-104 3.51469e-103 2.4003e-102 1.61709e-101 1.07454e-100 7.04128e-100 4.54933e-99 2.89755e-98 1.81895e-97 1.12521e-96 6.85782e-96 4.1171e-95 2.43421e-94 1.41709e-93 8.12104e-93 4.58044e-92 2.54204e-91 1.38783e-90 7.45186e-90 3.93422e-89 2.04177e-88 1.04134e-87 5.21802e-87 2.56814e-86 1.24111e-85 5.88773e-85 2.74097e-84 1.25182e-83 5.60685e-83 2.46203e-82 1.05953e-81 4.46713e-81 1.8445e-80 7.4559e-80 2.94934e-79 1.14124e-78 4.31801e-78 1.59681e-77 5.76895e-77 2.03526e-76 7.00835e-76 2.35439e-75 7.71242e-75 2.46225e-74 7.65725e-74 2.31835e-73 6.82979e-73 1.95664e-72 5.44799e-72 1.4734e-71 3.86814e-71 9.85157e-71 2.43252e-70 5.81939e-70 1.34799e-69 3.02133e-69 6.54837e-69 1.37155e-68 2.77433e-68 5.41639e-68 1.02003e-67 1.85197e-67 3.24012e-67 5.46025e-67 8.86025e-67 1.38411e-66 2.0814e-66 3.01334e-66 4.20133e-66 5.64454e-66 7.31415e-66 9.15257e-66 1.10789e-65 1.30003e-65 1.48266e-65 1.64844e-65 1.79273e-65 1.91387e-65 2.01282e-65 2.0924e-65 2.15626e-65 2.20818e-65 2.25148e-65 2.28883e-65 2.32203e-65 2.35191e-65 2.3781e-65 2.39882e-65 2.41092e-65 2.41018e-65 2.39193e-65 2.35209e-65 2.28821e-65 2.20058e-65 2.09285e-65 1.97223e-65 1.84879e-65 1.73428e-65 1.64024e-65 1.57618e-65 1.54791e-65 1.55664e-65 1.59896e-65 1.66772e-65 1.75347e-65 1.84628e-65 1.93729e-65 2.0198e-65 2.08974e-65 2.14549e-65 2.18725e-65 2.21625e-65 2.23405e-65 2.24208e-65 2.24154e-65 2.23352e-65 2.21925e-65 2.20032e-65 2.17866e-65 2.15641e-65 2.13557e-65 2.1177e-65 2.1037e-65 2.09385e-65 2.08793e-65 2.08564e-65 2.08692e-65 2.0922e-65 2.10239e-65 2.11866e-65 2.14197e-65 2.17254e-65 2.20955e-65 2.25095e-65 2.29388e-65 2.33524e-65 2.37264e-65 2.40512e-65 2.43357e-65 2.46059e-65 2.48966e-65 2.52391e-65 2.56477e-65 2.61092e-65 2.65805e-65 2.69947e-65 2.72766e-65 2.73609e-65 2.72113e-65 2.6831e-65 2.62639e-65 2.55856e-65 2.48864e-65 2.42509e-65 2.37414e-65 2.33855e-65 2.31725e-65 2.30568e-65 2.29679e-65 2.28236e-65 2.25454e-65 2.20726e-65 2.1373e-65 2.04468e-65 1.93246e-65 1.80574e-65 1.67037e-65 1.53162e-65 1.39321e-65 1.25697e-65 1.12321e-65 9.91476e-66 8.61536e-66 7.3406e-66 6.1089e-66 4.94797e-66 3.88878e-66 2.95849e-66 2.17472e-66 1.54253e-66 1.05481e-66 6.95023e-67 4.41159e-67 2.69744e-67 1.58904e-67 9.02116e-68 4.93748e-68 2.60653e-68 1.32788e-68 6.53195e-69 3.10433e-69 1.42627e-69 6.33891e-70 2.72698e-70 1.13627e-70 4.58862e-71 1.79704e-71 6.82934e-72 2.52003e-72 9.03441e-73 3.14857e-73 1.06732e-73 3.52116e-74 1.13115e-74 3.54023e-75 1.08004e-75 3.2134e-76 9.32854e-77 2.64359e-77 7.31651e-78 1.9785e-78 5.22971e-79 1.3518e-79 3.41831e-80 8.45962e-81 2.04972e-81 4.86411e-82 1.13092e-82 2.57713e-83 5.75783e-84 1.26166e-84 2.71225e-85 5.72205e-86 1.18506e-86 2.41001e-87 4.8139e-88 9.43639e-89 1.75794e-89 0 
0 9.19983e-127 8.70798e-126 8.07023e-125 7.40151e-124 6.71784e-123 6.03355e-122 5.36174e-121 4.71393e-120 4.09978e-119 3.52689e-118 3.00076e-117 2.5248e-116 2.10055e-115 1.72782e-114 1.40499e-113 1.12928e-112 8.97088e-112 7.04232e-111 5.46247e-110 4.186e-109 3.16874e-108 2.36915e-107 1.74927e-106 1.27531e-105 9.17925e-105 6.52177e-104 4.57325e-103 3.16459e-102 2.16059e-101 1.45519e-100 9.66687e-100 6.3328e-99 4.09046e-98 2.60458e-97 1.6346e-96 1.0109e-95 6.15952e-95 3.69691e-94 2.18521e-93 1.27181e-92 7.28666e-92 4.10881e-91 2.27974e-90 1.24433e-89 6.67974e-89 3.52575e-88 1.82936e-87 9.32801e-87 4.67308e-86 2.29943e-85 1.11101e-84 5.26945e-84 2.45263e-83 1.1199e-82 5.01502e-82 2.20172e-81 9.47331e-81 3.99334e-80 1.64857e-79 6.66276e-79 2.63515e-78 1.0195e-77 3.85677e-77 1.42602e-76 5.15117e-76 1.81704e-75 6.25608e-75 2.10139e-74 6.8828e-74 2.19712e-73 6.83194e-73 2.06824e-72 6.09235e-72 1.7452e-71 4.85882e-71 1.31395e-70 3.44923e-70 8.784e-70 2.16877e-69 5.18806e-69 1.20167e-68 2.69323e-68 5.83695e-68 1.22249e-67 2.47271e-67 4.82733e-67 9.09067e-67 1.65045e-66 2.88747e-66 4.86584e-66 7.89556e-66 1.23339e-65 1.85472e-65 2.68513e-65 3.74369e-65 5.02966e-65 6.51735e-65 8.15547e-65 9.87192e-65 1.1584e-64 1.32112e-64 1.46884e-64 1.59739e-64 1.7053e-64 1.79344e-64 1.8643e-64 1.92116e-64 1.96737e-64 2.0059e-64 2.03913e-64 2.06867e-64 2.09525e-64 2.11854e-64 2.13697e-64 2.14773e-64 2.14706e-64 2.13083e-64 2.09538e-64 2.03856e-64 1.9606e-64 1.86478e-64 1.75749e-64 1.6477e-64 1.54586e-64 1.46224e-64 1.40529e-64 1.38018e-64 1.388e-64 1.42569e-64 1.48689e-64 1.56321e-64 1.64581e-64 1.72679e-64 1.8002e-64 1.86242e-64 1.91201e-64 1.94915e-64 1.97493e-64 1.99074e-64 1.99787e-64 1.99736e-64 1.99021e-64 1.97751e-64 1.96067e-64 1.94142e-64 1.92165e-64 1.90314e-64 1.88727e-64 1.87486e-64 1.86612e-64 1.86087e-64 1.85885e-64 1.85999e-64 1.86467e-64 1.87372e-64 1.88816e-64 1.90885e-64 1.93601e-64 1.96887e-64 2.00564e-64 2.04377e-64 2.08052e-64 2.11375e-64 2.14261e-64 2.1679e-64 2.19192e-64 2.21776e-64 2.24821e-64 2.28453e-64 2.32554e-64 2.36742e-64 2.40423e-64 2.42927e-64 2.43677e-64 2.42347e-64 2.38968e-64 2.33929e-64 2.27903e-64 2.2169e-64 2.16043e-64 2.11515e-64 2.0835e-64 2.06454e-64 2.05422e-64 2.04627e-64 2.03339e-64 2.0086e-64 1.96651e-64 1.90425e-64 1.82184e-64 1.72199e-64 1.60923e-64 1.48877e-64 1.36527e-64 1.24205e-64 1.12073e-64 1.00157e-64 8.84188e-65 7.68368e-65 6.5472e-65 5.44893e-65 4.41361e-65 3.46894e-65 2.63918e-65 1.94006e-65 1.37612e-65 9.41048e-66 6.20079e-66 3.93599e-66 2.4067e-66 1.4178e-66 8.04923e-67 4.40564e-67 2.32583e-67 1.18492e-67 5.82889e-68 2.77029e-68 1.27284e-68 5.65726e-69 2.43385e-69 1.01417e-69 4.09577e-70 1.60412e-70 6.09656e-71 2.24979e-71 8.06616e-72 2.81134e-72 9.53085e-73 3.14457e-73 1.01027e-73 3.16222e-74 9.64822e-75 2.87091e-75 8.33529e-76 2.36241e-76 6.53914e-77 1.76853e-77 4.67535e-78 1.20868e-78 3.05688e-79 7.56633e-80 1.83358e-80 4.35192e-81 1.01201e-81 2.30657e-82 5.15429e-83 1.12963e-83 2.42887e-84 5.12522e-85 1.06166e-85 2.15952e-86 4.31446e-87 8.45917e-88 1.57621e-88 0 
0 8.26549e-126 7.82108e-125 7.24591e-124 6.64332e-123 6.02773e-122 5.41198e-121 4.80783e-120 4.22559e-119 3.67389e-118 3.15951e-117 2.68733e-116 2.26037e-115 1.87997e-114 1.5459e-113 1.25666e-112 1.00975e-111 8.0189e-111 6.29308e-110 4.87984e-109 3.73839e-108 2.82906e-107 2.11455e-106 1.56083e-105 1.13759e-104 8.18562e-104 5.81414e-103 4.07587e-102 2.81961e-101 1.92452e-100 1.29583e-99 8.60585e-99 5.63617e-98 3.63951e-97 2.31681e-96 1.45361e-95 8.98736e-95 5.47467e-94 3.28502e-93 1.94126e-92 1.12954e-91 6.46993e-91 3.64738e-90 2.02323e-89 1.10406e-88 5.92536e-88 3.12685e-87 1.62202e-86 8.26892e-86 4.1416e-85 2.03747e-84 9.84231e-84 4.66719e-83 2.17187e-82 9.91509e-82 4.4392e-81 1.94855e-80 8.38246e-80 3.53287e-79 1.45822e-78 5.89246e-78 2.33011e-77 9.01343e-77 3.40925e-76 1.26037e-75 4.55212e-75 1.60551e-74 5.52705e-74 1.85628e-73 6.07923e-73 1.94038e-72 6.03295e-72 1.82617e-71 5.37877e-71 1.54065e-70 4.28895e-70 1.15975e-69 3.04421e-69 7.752e-69 1.91384e-68 4.57796e-68 1.0603e-67 2.37627e-67 5.14977e-67 1.07852e-66 2.18142e-66 4.25854e-66 8.0193e-66 1.4559e-65 2.54705e-65 4.29209e-65 6.96445e-65 1.08792e-64 1.63595e-64 2.36839e-64 3.30206e-64 4.43631e-64 5.74848e-64 7.19332e-64 8.70725e-64 1.02173e-63 1.16525e-63 1.29553e-63 1.4089e-63 1.50406e-63 1.58176e-63 1.64423e-63 1.69433e-63 1.73504e-63 1.76898e-63 1.79824e-63 1.82425e-63 1.84766e-63 1.86816e-63 1.88438e-63 1.89385e-63 1.89326e-63 1.87896e-63 1.84774e-63 1.79771e-63 1.72907e-63 1.6447e-63 1.55024e-63 1.45359e-63 1.36394e-63 1.29034e-63 1.24023e-63 1.21816e-63 1.22508e-63 1.25831e-63 1.31224e-63 1.37947e-63 1.45222e-63 1.52354e-63 1.58819e-63 1.64298e-63 1.68665e-63 1.71934e-63 1.74203e-63 1.75593e-63 1.76218e-63 1.76172e-63 1.7554e-63 1.74421e-63 1.72939e-63 1.71245e-63 1.69506e-63 1.67879e-63 1.66485e-63 1.65395e-63 1.64628e-63 1.64168e-63 1.63991e-63 1.64091e-63 1.64503e-63 1.65297e-63 1.66566e-63 1.68385e-63 1.70771e-63 1.7366e-63 1.76893e-63 1.80246e-63 1.83477e-63 1.86399e-63 1.88938e-63 1.91162e-63 1.93276e-63 1.9555e-63 1.98229e-63 2.01424e-63 2.05032e-63 2.08716e-63 2.11953e-63 2.14155e-63 2.14814e-63 2.13645e-63 2.10673e-63 2.06242e-63 2.00943e-63 1.95478e-63 1.90511e-63 1.86527e-63 1.83742e-63 1.82072e-63 1.81161e-63 1.80458e-63 1.7932e-63 1.77133e-63 1.73424e-63 1.6794e-63 1.60682e-63 1.51889e-63 1.41958e-63 1.31347e-63 1.20467e-63 1.09608e-63 9.89143e-64 8.84074e-64 7.80536e-64 6.78349e-64 5.78055e-64 4.81114e-64 3.89719e-64 3.06317e-64 2.33055e-64 1.71323e-64 1.21526e-64 8.31066e-65 5.47621e-65 3.47614e-65 2.12556e-65 1.25221e-65 7.10926e-66 3.89124e-66 2.05432e-66 1.04662e-66 5.14869e-67 2.44708e-67 1.12438e-67 4.99755e-68 2.15011e-68 8.95979e-69 3.61861e-69 1.41731e-69 5.38687e-70 1.98802e-70 7.1281e-71 2.48457e-71 8.4237e-72 2.77951e-72 8.93067e-73 2.79563e-73 8.53056e-74 2.53861e-74 7.37132e-75 2.08944e-75 5.7843e-76 1.56458e-76 4.13675e-77 1.06959e-77 2.7055e-78 6.69763e-79 1.62332e-79 3.85351e-80 8.96261e-81 2.0431e-81 4.56635e-82 1.00096e-82 2.15262e-83 4.54316e-84 9.41281e-85 1.91503e-85 3.8268e-86 7.50461e-87 1.39863e-87 0 
0 7.34743e-125 6.95015e-124 6.43693e-123 5.8997e-122 5.35128e-121 4.80308e-120 4.26553e-119 3.74777e-118 3.25742e-117 2.80046e-116 2.38119e-115 2.00225e-114 1.66476e-113 1.36851e-112 1.11212e-111 8.93337e-111 7.09222e-110 5.56416e-109 4.31331e-108 3.30339e-107 2.49913e-106 1.8674e-105 1.37799e-104 1.00404e-103 7.22255e-103 5.12861e-102 3.59428e-101 2.48575e-100 1.69617e-99 1.14176e-98 7.58057e-98 4.96334e-97 3.20417e-96 2.03915e-95 1.27906e-94 7.9061e-94 4.81477e-93 2.88832e-92 1.7064e-91 9.9264e-91 5.68439e-90 3.20376e-89 1.77673e-88 9.69317e-88 5.20102e-87 2.74398e-86 1.42309e-85 7.25322e-85 3.63209e-84 1.78644e-83 8.62789e-83 4.09048e-82 1.90312e-81 8.68652e-81 3.88841e-80 1.70647e-79 7.33974e-79 3.09287e-78 1.27639e-77 5.15685e-77 2.0389e-76 7.88574e-76 2.98226e-75 1.10236e-74 3.98089e-74 1.40386e-73 4.83222e-73 1.62272e-72 5.31374e-72 1.69586e-71 5.27217e-71 1.59573e-70 4.6996e-70 1.346e-69 3.74676e-69 1.01306e-68 2.65899e-68 6.77063e-68 1.67146e-67 3.99796e-67 9.25924e-67 2.07502e-66 4.49674e-66 9.41721e-66 1.90468e-65 3.71818e-65 7.00158e-65 1.27111e-64 2.22372e-64 3.74719e-64 6.08021e-64 9.49784e-64 1.42822e-63 2.06764e-63 2.88273e-63 3.87293e-63 5.01845e-63 6.2798e-63 7.60146e-63 8.91969e-63 1.01726e-62 1.13098e-62 1.22994e-62 1.31299e-62 1.3808e-62 1.43529e-62 1.47899e-62 1.51449e-62 1.54407e-62 1.56957e-62 1.59224e-62 1.61264e-62 1.6305e-62 1.64464e-62 1.65288e-62 1.65236e-62 1.63989e-62 1.61269e-62 1.56908e-62 1.50926e-62 1.43575e-62 1.35344e-62 1.26923e-62 1.19112e-62 1.127e-62 1.08337e-62 1.06417e-62 1.07023e-62 1.09923e-62 1.14626e-62 1.20488e-62 1.2683e-62 1.33047e-62 1.38682e-62 1.43457e-62 1.47262e-62 1.5011e-62 1.52086e-62 1.53296e-62 1.53839e-62 1.53797e-62 1.53246e-62 1.5227e-62 1.50978e-62 1.49503e-62 1.4799e-62 1.46574e-62 1.45362e-62 1.44414e-62 1.43748e-62 1.43349e-62 1.43195e-62 1.43282e-62 1.4364e-62 1.44331e-62 1.45435e-62 1.47016e-62 1.49092e-62 1.51606e-62 1.54419e-62 1.57336e-62 1.60148e-62 1.62692e-62 1.64901e-62 1.66838e-62 1.68678e-62 1.70659e-62 1.72992e-62 1.75774e-62 1.78916e-62 1.82122e-62 1.8494e-62 1.86857e-62 1.87431e-62 1.86413e-62 1.83826e-62 1.7997e-62 1.75357e-62 1.706e-62 1.66276e-62 1.62807e-62 1.60381e-62 1.58925e-62 1.58129e-62 1.57513e-62 1.56518e-62 1.5461e-62 1.51376e-62 1.46594e-62 1.40268e-62 1.32603e-62 1.23947e-62 1.14696e-62 1.0521e-62 9.57394e-63 8.64095e-63 7.72399e-63 6.82009e-63 5.92771e-63 5.05164e-63 4.20472e-63 3.40612e-63 2.67729e-63 2.03703e-63 1.4975e-63 1.06226e-63 7.26453e-64 4.78697e-64 3.03868e-64 1.8581e-64 1.09466e-64 6.2149e-65 3.40177e-65 1.79594e-65 9.14999e-66 4.50129e-66 2.13943e-66 9.83042e-67 4.36948e-67 1.87995e-67 7.83427e-68 3.16417e-68 1.23937e-68 4.7108e-69 1.73861e-69 6.2342e-70 2.17314e-70 7.36832e-71 2.43146e-71 7.813e-72 2.44597e-72 7.46433e-73 2.22153e-73 6.45131e-74 1.82887e-74 5.06352e-75 1.36979e-75 3.62219e-76 9.36674e-77 2.36963e-77 5.86702e-78 1.42222e-78 3.37666e-79 7.85482e-80 1.79087e-80 4.00332e-81 8.77696e-82 1.88788e-82 3.98518e-83 8.25834e-84 1.68049e-84 3.35879e-85 6.58817e-86 1.22807e-86 0 
0 6.46152e-124 6.11019e-123 5.65716e-122 5.18333e-121 4.69999e-120 4.21716e-119 3.74399e-118 3.28848e-117 2.85732e-116 2.45572e-115 2.0874e-114 1.75467e-113 1.45846e-112 1.19855e-111 9.73706e-111 7.81912e-110 6.20574e-109 4.86721e-108 3.77191e-107 2.88789e-106 2.18414e-105 1.63156e-104 1.20361e-103 8.76728e-103 6.30493e-102 4.47575e-101 3.13585e-100 2.1681e-99 1.47901e-98 9.95308e-98 6.60642e-97 4.32436e-96 2.79092e-95 1.77568e-94 1.11351e-93 6.88103e-93 4.18944e-92 2.51256e-91 1.48404e-90 8.63076e-90 4.94124e-89 2.78425e-88 1.54372e-87 8.42e-87 4.51685e-86 2.38249e-85 1.23535e-84 6.29496e-84 3.15157e-83 1.54978e-82 7.48335e-82 3.54715e-81 1.65002e-80 7.52983e-80 3.37001e-79 1.4787e-78 6.35896e-78 2.67913e-77 1.10546e-76 4.46556e-76 1.76531e-75 6.82657e-75 2.58133e-74 9.54027e-74 3.44478e-73 1.21464e-72 4.18044e-72 1.40369e-71 4.59598e-71 1.46664e-70 4.55912e-70 1.37979e-69 4.06328e-69 1.16366e-68 3.23896e-68 8.75702e-68 2.29832e-67 5.85192e-67 1.44459e-66 3.45514e-66 8.00173e-66 1.79314e-65 3.88577e-65 8.13747e-65 1.6458e-64 3.21276e-64 6.04973e-64 1.09829e-63 1.92136e-63 3.23765e-63 5.25338e-63 8.20622e-63 1.23399e-62 1.78645e-62 2.49069e-62 3.34621e-62 4.33594e-62 5.42574e-62 6.56764e-62 7.70658e-62 8.78904e-62 9.77151e-62 1.06264e-61 1.13437e-61 1.19293e-61 1.23998e-61 1.2777e-61 1.30832e-61 1.33385e-61 1.35584e-61 1.37539e-61 1.39298e-61 1.40838e-61 1.42057e-61 1.42767e-61 1.42722e-61 1.41646e-61 1.39299e-61 1.35538e-61 1.3038e-61 1.2404e-61 1.16942e-61 1.09681e-61 1.02946e-61 9.74189e-62 9.36581e-62 9.20055e-62 9.25318e-62 9.50356e-62 9.90944e-62 1.04152e-61 1.09624e-61 1.14987e-61 1.19848e-61 1.23966e-61 1.27248e-61 1.29703e-61 1.31406e-61 1.32449e-61 1.32916e-61 1.32878e-61 1.32401e-61 1.31559e-61 1.30445e-61 1.29174e-61 1.2787e-61 1.26651e-61 1.25608e-61 1.24793e-61 1.2422e-61 1.23877e-61 1.23745e-61 1.23821e-61 1.24129e-61 1.24723e-61 1.25673e-61 1.27034e-61 1.28822e-61 1.30985e-61 1.33408e-61 1.3592e-61 1.38342e-61 1.40532e-61 1.42436e-61 1.44105e-61 1.45691e-61 1.47397e-61 1.49408e-61 1.51806e-61 1.54512e-61 1.57275e-61 1.59703e-61 1.61354e-61 1.61848e-61 1.60971e-61 1.58743e-61 1.55421e-61 1.51447e-61 1.4735e-61 1.43625e-61 1.40636e-61 1.38544e-61 1.37288e-61 1.366e-61 1.36066e-61 1.35205e-61 1.33557e-61 1.30766e-61 1.26641e-61 1.21183e-61 1.14572e-61 1.07105e-61 9.91239e-62 9.0938e-62 8.27638e-62 7.47084e-62 6.67886e-62 5.89789e-62 5.12663e-62 4.36927e-62 3.63696e-62 2.94633e-62 2.31598e-62 1.76218e-62 1.29548e-62 9.18981e-63 6.28477e-63 4.14143e-63 2.62894e-63 1.60757e-63 9.47074e-64 5.37706e-64 2.9432e-64 1.55386e-64 7.91672e-65 3.89464e-65 1.85112e-65 8.50583e-66 3.7808e-66 1.62671e-66 6.77914e-67 2.7381e-67 1.07253e-67 4.07679e-68 1.50468e-68 5.39569e-69 1.88096e-69 6.37805e-70 2.10483e-70 6.76394e-71 2.11772e-71 6.46317e-72 1.92375e-72 5.5871e-73 1.58404e-73 4.38617e-74 1.18669e-74 3.13841e-75 8.11676e-76 2.05368e-76 5.08548e-77 1.23295e-77 2.92773e-78 6.8116e-79 1.55328e-79 3.47278e-80 7.61512e-81 1.63827e-81 3.4589e-82 7.16911e-83 1.45912e-83 2.91693e-84 5.72262e-85 1.06693e-85 0 
0 5.62111e-123 5.31378e-122 4.9182e-121 4.50482e-120 4.08343e-119 3.66277e-118 3.25077e-117 2.85437e-116 2.47934e-115 2.1302e-114 1.81014e-113 1.52113e-112 1.26395e-111 1.03839e-110 8.43333e-110 6.77014e-109 5.37158e-108 4.21171e-107 3.26295e-106 2.49748e-105 1.88832e-104 1.41017e-103 1.03998e-102 7.57325e-102 5.4447e-101 3.864e-100 2.70648e-99 1.87072e-98 1.2758e-97 8.58321e-97 5.69562e-96 3.72718e-95 2.40487e-94 1.52967e-93 9.58991e-93 5.92464e-92 3.60625e-91 2.16226e-90 1.27682e-89 7.42384e-89 4.24925e-88 2.39377e-87 1.32691e-86 7.2358e-86 3.88073e-85 2.04651e-84 1.06091e-83 5.40492e-83 2.70541e-82 1.33011e-81 6.42138e-81 3.04318e-80 1.41532e-79 6.45759e-79 2.8896e-78 1.26769e-77 5.4506e-77 2.29604e-76 9.47245e-76 3.82584e-75 1.51219e-74 5.84692e-74 2.2106e-73 8.16901e-73 2.94928e-72 1.0398e-71 3.57828e-71 1.20137e-70 3.93315e-70 1.25501e-69 3.90088e-69 1.18048e-68 3.47607e-68 9.95421e-68 2.7705e-67 7.49001e-67 1.96568e-66 5.00472e-66 1.23539e-65 2.95468e-65 6.8425e-65 1.53332e-64 3.32264e-64 6.95804e-64 1.40724e-63 2.74702e-63 5.17267e-63 9.39057e-63 1.64279e-62 2.76822e-62 4.49168e-62 7.01636e-62 1.05507e-61 1.52742e-61 2.12955e-61 2.86104e-61 3.70727e-61 4.63906e-61 5.61539e-61 6.58917e-61 7.51464e-61 8.35458e-61 9.08536e-61 9.69849e-61 1.01989e-60 1.06009e-60 1.0923e-60 1.11845e-60 1.14024e-60 1.15901e-60 1.17569e-60 1.1907e-60 1.20384e-60 1.21424e-60 1.2203e-60 1.21991e-60 1.21072e-60 1.19069e-60 1.15859e-60 1.11457e-60 1.06047e-60 9.99902e-61 9.37942e-61 8.80482e-61 8.33332e-61 8.01259e-61 7.87181e-61 7.917e-61 8.13095e-61 8.47759e-61 8.90946e-61 9.37658e-61 9.8344e-61 1.02493e-60 1.06008e-60 1.08808e-60 1.10903e-60 1.12356e-60 1.13244e-60 1.13641e-60 1.13608e-60 1.132e-60 1.12481e-60 1.1153e-60 1.10446e-60 1.09335e-60 1.08297e-60 1.07409e-60 1.06715e-60 1.06228e-60 1.05936e-60 1.05824e-60 1.05888e-60 1.0615e-60 1.06656e-60 1.07465e-60 1.08625e-60 1.10147e-60 1.11991e-60 1.14055e-60 1.16195e-60 1.18259e-60 1.20126e-60 1.21749e-60 1.23172e-60 1.24524e-60 1.2598e-60 1.27694e-60 1.29738e-60 1.32046e-60 1.34401e-60 1.36471e-60 1.37878e-60 1.383e-60 1.37552e-60 1.35653e-60 1.32821e-60 1.29434e-60 1.25942e-60 1.22766e-60 1.20217e-60 1.18433e-60 1.17361e-60 1.16772e-60 1.16315e-60 1.15578e-60 1.14169e-60 1.11785e-60 1.08263e-60 1.03605e-60 9.79621e-61 9.15879e-61 8.47748e-61 7.7785e-61 7.08034e-61 6.3921e-61 5.7152e-61 5.04746e-61 4.38781e-61 3.73988e-61 3.11325e-61 2.52219e-61 1.98266e-61 1.50861e-61 1.1091e-61 7.86778e-62 5.38074e-62 3.54575e-62 2.25083e-62 1.37637e-62 8.10872e-63 4.60379e-63 2.51995e-63 1.33041e-63 6.77833e-64 3.33463e-64 1.58496e-64 7.28291e-65 3.23726e-65 1.39287e-65 5.80477e-66 2.34461e-66 9.18421e-67 3.49114e-67 1.28858e-67 4.62096e-68 1.61096e-68 5.46284e-69 1.80291e-69 5.79411e-70 1.81421e-70 5.53732e-71 1.64831e-71 4.78761e-72 1.3575e-72 3.75929e-73 1.0172e-73 2.69048e-74 6.95915e-75 1.76102e-75 4.36135e-76 1.05754e-76 2.51157e-77 5.84427e-78 1.3329e-78 2.98056e-79 6.53688e-80 1.40655e-80 2.9702e-81 6.15733e-82 1.25344e-82 2.50622e-83 4.91784e-84 9.17063e-85 0 