# vtk DataFile Version 3.0
Gray-Scott Simulation Output
ASCII
DATASET STRUCTURED_POINTS
DIMENSIONS 256 256 1
SPACING 1.0 1.0 1.0
ORIGIN 0 0 0
POINT_DATA 65536
SCALARS u double
LOOKUP_TABLE default
0 0 0 0 0 0 0 0 0 0 0 0 0 0 0 0 0 0 0 0 0 0 0 0 0 0 0 0 0 0 0 0 0 0 0 0 0 0 0 0 0 0 0 0 0 0 0 0 0 0 0 0 0 0 0 0 0 0 0 0 0 0 0 0 0 0 0 0 0 0 0 0 0 0 0 0 0 0 0 0 0 0 0 0 0 0 0 0 0 0 0 0 0 0 0 0 0 0 0 0 0 0 0 0 0 0 0 0 0 0 0 0 0 0 0 0 0 0 0 0 0 0 0 0 0 0 0 0 0 0 0 0 0 0 0 0 0 0 0 0 0 0 0 0 0 0 0 0 0 0 0 0 0 0 0 0 0 0 0 0 0 0 0 0 0 0 0 0 0 0 0 0 0 0 0 0 0 0 0 0 0 0 0 0 0 0 0 0 0 0 0 0 0 0 0 0 0 0 0 0 0 0 0 0 0 0 0 0 0 0 0 0 0 0 0 0 0 0 0 0 0 0 0 0 0 0 0 0 0 0 0 0 0 0 0 0 0 0 0 0 0 0 0 0 0 0 0 0 0 0 0 0 0 0 0 0 
0 7.87787e-91 3.76511e-90 1.70711e-89 7.65382e-89 3.3995e-88 1.49581e-87 6.51981e-87 2.81483e-86 1.20364e-85 5.09719e-85 2.13758e-84 8.87633e-84 3.64946e-83 1.48549e-82 5.98577e-82 2.38749e-81 9.42526e-81 3.68246e-80 1.42375e-79 5.44682e-79 2.06168e-78 7.72017e-78 2.85968e-77 1.04773e-76 3.79647e-76 1.36039e-75 4.82005e-75 1.6885e-74 5.84741e-74 2.00167e-73 6.7723e-73 2.26437e-72 7.48128e-72 2.44214e-71 7.87548e-71 2.50868e-70 7.8926e-70 2.45215e-69 7.52265e-69 2.27843e-68 6.81212e-68 2.01027e-67 5.85453e-67 1.68243e-66 4.77006e-66 1.33412e-65 3.68033e-65 1.00123e-64 2.68579e-64 7.10293e-64 1.85166e-63 4.7575e-63 1.20453e-62 3.00479e-62 7.38405e-62 1.78727e-61 4.26017e-61 9.9985e-61 2.31016e-60 5.25379e-60 1.17586e-59 2.58949e-59 5.61016e-59 1.19554e-58 2.50556e-58 5.16328e-58 1.04604e-57 2.08306e-57 4.0767e-57 7.83971e-57 1.48116e-56 2.74881e-56 5.01025e-56 8.96766e-56 1.57594e-55 2.7188e-55 4.604e-55 7.65171e-55 1.24795e-54 1.99712e-54 3.13573e-54 4.83027e-54 7.29916e-54 1.082e-53 1.57335e-53 2.24424e-53 3.14034e-53 4.31096e-53 5.80636e-53 7.67411e-53 9.95465e-53 1.26765e-52 1.58514e-52 1.94709e-52 2.35032e-52 2.78933e-52 3.25642e-52 3.74216e-52 4.23595e-52 4.72677e-52 5.20396e-52 5.65796e-52 6.08086e-52 6.46681e-52 6.81208e-52 7.11501e-52 7.37561e-52 7.59514e-52 7.77555e-52 7.91898e-52 8.02736e-52 8.10213e-52 8.1442e-52 8.15406e-52 8.13205e-52 8.07883e-52 7.99577e-52 7.88546e-52 7.75196e-52 7.60101e-52 7.43987e-52 7.27706e-52 7.12173e-52 6.98299e-52 6.86907e-52 6.78664e-52 6.74012e-52 6.73133e-52 6.75938e-52 6.82087e-52 6.91026e-52 7.02055e-52 7.14396e-52 7.27263e-52 7.39927e-52 7.51767e-52 7.62297e-52 7.71186e-52 7.78255e-52 7.83463e-52 7.86889e-52 7.88707e-52 7.89156e-52 7.88517e-52 7.87095e-52 7.85192e-52 7.83102e-52 7.81093e-52 7.79404e-52 7.78243e-52 7.7778e-52 7.78151e-52 7.79458e-52 7.81762e-52 7.85094e-52 7.89443e-52 7.94769e-52 8.00996e-52 8.08024e-52 8.15735e-52 8.23999e-52 8.32683e-52 8.41653e-52 8.50773e-52 8.599e-52 8.68876e-52 8.77515e-52 8.85597e-52 8.92869e-52 8.99052e-52 9.03859e-52 9.07027e-52 9.08343e-52 9.07677e-52 9.05e-52 9.00395e-52 8.94037e-52 8.86175e-52 8.7708e-52 8.67005e-52 8.5613e-52 8.44533e-52 8.32165e-52 8.18852e-52 8.04315e-52 7.88208e-52 7.70159e-52 7.49821e-52 7.26912e-52 7.01248e-52 6.7276e-52 6.41498e-52 6.07624e-52 5.71401e-52 5.33177e-52 4.93366e-52 4.52441e-52 4.10918e-52 3.69347e-52 3.283e-52 2.88352e-52 2.50062e-52 2.13947e-52 1.80458e-52 1.49949e-52 1.22667e-52 9.87339e-53 7.81502e-53 6.08018e-53 4.64783e-53 3.48967e-53 2.57275e-53 1.86205e-53 1.32279e-53 9.22223e-54 6.30944e-54 4.23576e-54 2.79028e-54 1.80361e-54 1.144e-54 7.12079e-55 4.34985e-55 2.60798e-55 1.53483e-55 8.8674e-56 5.02993e-56 2.80167e-56 1.53258e-56 8.23464e-57 4.34657e-57 2.25423e-57 1.14887e-57 5.75481e-58 2.83371e-58 1.37188e-58 6.53107e-59 3.05799e-59 1.40846e-59 6.38239e-60 2.84594e-60 1.24895e-60 5.39532e-61 2.29462e-61 9.60947e-62 3.96328e-62 1.61008e-62 6.44387e-63 2.54111e-63 9.87513e-64 3.78238e-64 1.42785e-64 5.30623e-65 1.92085e-65 6.17704e-66 0 
0 3.75881e-90 1.79649e-89 8.14551e-89 3.65212e-88 1.62216e-87 7.13787e-87 3.11129e-86 1.3433e-85 5.74427e-85 2.4327e-84 1.02024e-83 4.23677e-83 1.74202e-82 7.09122e-82 2.85758e-81 1.13985e-80 4.50021e-80 1.75837e-79 6.79896e-79 2.60128e-78 9.847e-78 3.68766e-77 1.36611e-76 5.00566e-76 1.814e-75 6.50084e-75 2.30361e-74 8.07072e-74 2.79531e-73 9.57008e-73 3.23832e-72 1.08291e-71 3.57837e-71 1.16828e-70 3.76809e-70 1.20049e-69 3.77753e-69 1.17384e-68 3.60174e-68 1.09108e-67 3.26277e-67 9.63036e-67 2.80522e-66 8.06306e-66 2.28654e-65 6.39652e-65 1.76494e-64 4.80259e-64 1.28859e-63 3.40864e-63 8.8881e-63 2.28418e-62 5.78467e-62 1.44339e-61 3.54792e-61 8.58975e-61 2.04801e-60 4.80789e-60 1.11116e-59 2.52769e-59 5.6588e-59 1.24653e-58 2.70135e-58 5.75823e-58 1.20712e-57 2.48822e-57 5.04231e-57 1.00438e-56 1.96618e-56 3.78207e-56 7.14734e-56 1.32678e-55 2.41892e-55 4.33059e-55 7.6122e-55 1.31355e-54 2.22485e-54 3.69842e-54 6.03311e-54 9.65672e-54 1.5165e-53 2.33638e-53 3.5311e-53 5.23505e-53 7.61324e-53 1.08607e-52 1.51984e-52 2.08652e-52 2.81042e-52 3.71454e-52 4.8184e-52 6.13574e-52 7.67219e-52 9.42345e-52 1.13741e-51 1.34972e-51 1.57555e-51 1.81031e-51 2.04887e-51 2.28589e-51 2.51621e-51 2.73521e-51 2.93909e-51 3.12502e-51 3.29124e-51 3.43696e-51 3.56222e-51 3.66766e-51 3.75424e-51 3.82301e-51 3.87493e-51 3.9107e-51 3.93077e-51 3.93537e-51 3.92467e-51 3.89898e-51 3.85896e-51 3.80583e-51 3.74156e-51 3.66889e-51 3.59133e-51 3.51296e-51 3.4382e-51 3.37142e-51 3.3166e-51 3.27694e-51 3.25457e-51 3.25036e-51 3.2639e-51 3.29352e-51 3.33658e-51 3.38969e-51 3.4491e-51 3.51103e-51 3.57198e-51 3.62895e-51 3.6796e-51 3.72235e-51 3.75633e-51 3.78136e-51 3.79782e-51 3.80653e-51 3.80866e-51 3.80556e-51 3.7987e-51 3.78953e-51 3.77946e-51 3.76978e-51 3.76165e-51 3.75605e-51 3.75381e-51 3.75558e-51 3.76185e-51 3.77292e-51 3.78892e-51 3.80982e-51 3.83541e-51 3.86533e-51 3.89911e-51 3.93617e-51 3.9759e-51 4.01764e-51 4.06077e-51 4.10462e-51 4.14851e-51 4.19169e-51 4.23325e-51 4.27214e-51 4.30714e-51 4.3369e-51 4.36006e-51 4.37532e-51 4.38168e-51 4.37849e-51 4.36563e-51 4.34348e-51 4.31291e-51 4.2751e-51 4.23136e-51 4.18292e-51 4.13064e-51 4.07491e-51 4.01548e-51 3.95153e-51 3.88171e-51 3.80435e-51 3.71766e-51 3.61995e-51 3.50987e-51 3.38652e-51 3.24955e-51 3.09919e-51 2.93621e-51 2.76184e-51 2.57775e-51 2.38593e-51 2.18862e-51 1.98831e-51 1.78765e-51 1.5894e-51 1.39636e-51 1.21123e-51 1.03652e-51 8.74445e-52 7.26734e-52 5.94596e-52 4.78645e-52 3.78894e-52 2.94804e-52 2.25365e-52 1.6921e-52 1.24749e-52 9.02855e-53 6.41348e-53 4.47104e-53 3.05861e-53 2.05313e-53 1.35232e-53 8.73999e-54 5.5428e-54 3.4495e-54 2.1068e-54 1.2629e-54 7.43083e-55 4.2922e-55 2.43416e-55 1.35552e-55 7.41326e-56 3.98222e-56 2.10146e-56 1.08959e-56 5.55168e-57 2.78019e-57 1.36863e-57 6.62422e-58 3.15276e-58 1.4758e-58 6.79554e-59 3.07857e-59 1.3724e-59 6.02127e-60 2.60044e-60 1.10568e-60 4.62924e-61 1.90878e-61 7.75251e-62 3.10196e-62 1.22295e-62 4.75145e-63 1.81948e-63 6.86701e-64 2.55137e-64 9.23401e-65 2.96896e-65 0 
0 1.7011e-89 8.13045e-89 3.68653e-88 1.65294e-87 7.34208e-87 3.2308e-86 1.40831e-85 6.08066e-85 2.60036e-84 1.10131e-83 4.61898e-83 1.91825e-82 7.88775e-82 3.21107e-81 1.29408e-80 5.16231e-80 2.03828e-79 7.96489e-79 3.08001e-78 1.17853e-77 4.4617e-77 1.67106e-76 6.19121e-76 2.26884e-75 8.22307e-75 2.94728e-74 1.04452e-73 3.66001e-73 1.26783e-72 4.34123e-72 1.46921e-71 4.91392e-71 1.62403e-70 5.30309e-70 1.71073e-69 5.45131e-69 1.71566e-68 5.33236e-68 1.63647e-67 4.95842e-67 1.48308e-66 4.37843e-66 1.27568e-65 3.66753e-65 1.04029e-64 2.91089e-64 8.0338e-64 2.18663e-63 5.8685e-63 1.55278e-62 4.04999e-62 1.04111e-61 2.63733e-61 6.5825e-61 1.61848e-60 3.91958e-60 9.34801e-60 2.19519e-59 5.07486e-59 1.15479e-58 2.58605e-58 5.69833e-58 1.23527e-57 2.63392e-57 5.52329e-57 1.13886e-56 2.30857e-56 4.59987e-56 9.00744e-56 1.73315e-55 3.27627e-55 6.08358e-55 1.10944e-54 1.98678e-54 3.49325e-54 6.02948e-54 1.02151e-53 1.69848e-53 2.7713e-53 4.43674e-53 6.96887e-53 1.07385e-52 1.62324e-52 2.4069e-52 3.50077e-52 4.99458e-52 6.99005e-52 9.59696e-52 1.29272e-51 1.70863e-51 2.21639e-51 2.82228e-51 3.52885e-51 4.33404e-51 5.23068e-51 6.20635e-51 7.24378e-51 8.32183e-51 9.41681e-51 1.05041e-50 1.15602e-50 1.25636e-50 1.34971e-50 1.43478e-50 1.51077e-50 1.57733e-50 1.6345e-50 1.68257e-50 1.72201e-50 1.7533e-50 1.7769e-50 1.79314e-50 1.80222e-50 1.80424e-50 1.7993e-50 1.78752e-50 1.7692e-50 1.7449e-50 1.71551e-50 1.68229e-50 1.64684e-50 1.61101e-50 1.57684e-50 1.54631e-50 1.52126e-50 1.50313e-50 1.49292e-50 1.49101e-50 1.49721e-50 1.51077e-50 1.53047e-50 1.55475e-50 1.58192e-50 1.61023e-50 1.63808e-50 1.66411e-50 1.68725e-50 1.70677e-50 1.72229e-50 1.73371e-50 1.74121e-50 1.74517e-50 1.74613e-50 1.7447e-50 1.74156e-50 1.73736e-50 1.73275e-50 1.72832e-50 1.7246e-50 1.72204e-50 1.72101e-50 1.72181e-50 1.72466e-50 1.72971e-50 1.73701e-50 1.74654e-50 1.75822e-50 1.77187e-50 1.78729e-50 1.8042e-50 1.82233e-50 1.84139e-50 1.86108e-50 1.8811e-50 1.90115e-50 1.92087e-50 1.93985e-50 1.95763e-50 1.97362e-50 1.98723e-50 1.99782e-50 2.00481e-50 2.00773e-50 2.00628e-50 2.00042e-50 1.9903e-50 1.97634e-50 1.95907e-50 1.9391e-50 1.91698e-50 1.89312e-50 1.86769e-50 1.84058e-50 1.81141e-50 1.77957e-50 1.7443e-50 1.70476e-50 1.6602e-50 1.60998e-50 1.55369e-50 1.49116e-50 1.4225e-50 1.34803e-50 1.26832e-50 1.18413e-50 1.09634e-50 1.00598e-50 9.14198e-51 8.22191e-51 7.31231e-51 6.426e-51 5.57551e-51 4.77249e-51 4.02711e-51 3.34749e-51 2.73929e-51 2.2054e-51 1.74597e-51 1.35858e-51 1.03862e-51 7.7984e-52 5.74926e-52 4.16081e-52 2.95548e-52 2.06019e-52 1.40922e-52 9.45838e-53 6.22896e-53 4.02512e-53 2.55223e-53 1.58805e-53 9.69707e-54 5.81154e-54 3.41869e-54 1.97423e-54 1.11933e-54 6.23165e-55 3.40715e-55 1.82974e-55 9.65305e-56 5.00363e-56 2.54872e-56 1.27599e-56 6.27961e-57 3.03845e-57 1.44571e-57 6.76536e-58 3.11428e-58 1.41045e-58 6.28578e-59 2.75703e-59 1.19035e-59 5.05981e-60 2.11782e-60 8.73002e-61 3.54471e-61 1.41793e-61 5.5887e-62 2.17077e-62 8.31039e-63 3.13567e-63 1.16474e-63 4.21446e-64 1.3548e-64 0 
0 7.61244e-89 3.63846e-88 1.64981e-87 7.39752e-87 3.28597e-86 1.44601e-85 6.30347e-85 2.72178e-84 1.16401e-83 4.93014e-83 2.06786e-82 8.58836e-82 3.53173e-81 1.43786e-80 5.7951e-80 2.31197e-79 9.12934e-79 3.56776e-78 1.37978e-77 5.28011e-77 1.99918e-76 7.48848e-76 2.77478e-75 1.01697e-74 3.68635e-74 1.32142e-73 4.68384e-73 1.64145e-72 5.6869e-72 1.94758e-71 6.59231e-71 2.20524e-70 7.28948e-70 2.38073e-69 7.6815e-69 2.44821e-68 7.70668e-68 2.39577e-67 7.35404e-67 2.22872e-66 6.66769e-66 1.96892e-65 5.73791e-65 1.65003e-64 4.68148e-64 1.31028e-63 3.61719e-63 9.84787e-63 2.6437e-62 6.99702e-62 1.8255e-61 4.69404e-61 1.18944e-60 2.96961e-60 7.30375e-60 1.76934e-59 4.2211e-59 9.91548e-59 2.293e-58 5.21941e-58 1.16921e-57 2.57718e-57 5.58854e-57 1.19201e-56 2.50044e-56 5.15737e-56 1.04579e-55 2.08441e-55 4.08298e-55 7.85866e-55 1.48602e-54 2.76018e-54 5.03515e-54 9.01952e-54 1.5863e-53 2.73875e-53 4.64118e-53 7.7189e-53 1.25974e-52 2.01725e-52 3.16919e-52 4.88443e-52 7.38462e-52 1.09515e-51 1.59308e-51 2.27313e-51 3.18161e-51 4.3685e-51 5.88467e-51 7.77818e-51 1.00897e-50 1.28476e-50 1.60632e-50 1.9727e-50 2.38058e-50 2.82428e-50 3.2959e-50 3.78578e-50 4.28312e-50 4.77672e-50 5.25581e-50 5.71075e-50 6.13365e-50 6.51873e-50 6.8624e-50 7.16315e-50 7.42121e-50 7.638e-50 7.81569e-50 7.95655e-50 8.06266e-50 8.13552e-50 8.17611e-50 8.18492e-50 8.16229e-50 8.10883e-50 8.02586e-50 7.91589e-50 7.78295e-50 7.63267e-50 7.4723e-50 7.31027e-50 7.1557e-50 7.01765e-50 6.90434e-50 6.82241e-50 6.77625e-50 6.76768e-50 6.7958e-50 6.85719e-50 6.94633e-50 7.05623e-50 7.17912e-50 7.30717e-50 7.43313e-50 7.5508e-50 7.65537e-50 7.74358e-50 7.81363e-50 7.86517e-50 7.899e-50 7.91685e-50 7.9211e-50 7.91459e-50 7.90031e-50 7.88129e-50 7.86042e-50 7.84038e-50 7.82353e-50 7.81192e-50 7.80724e-50 7.81083e-50 7.82368e-50 7.84643e-50 7.87936e-50 7.92239e-50 7.9751e-50 8.03675e-50 8.10636e-50 8.18274e-50 8.26463e-50 8.3507e-50 8.43963e-50 8.53009e-50 8.62066e-50 8.70978e-50 8.79561e-50 8.87596e-50 8.94831e-50 9.00989e-50 9.05782e-50 9.08947e-50 9.10271e-50 9.09622e-50 9.06974e-50 9.02406e-50 8.96097e-50 8.88293e-50 8.79269e-50 8.69278e-50 8.58502e-50 8.47021e-50 8.34787e-50 8.21627e-50 8.07265e-50 7.91353e-50 7.73518e-50 7.53411e-50 7.30746e-50 7.05334e-50 6.77095e-50 6.46071e-50 6.1241e-50 5.76363e-50 5.38264e-50 4.98514e-50 4.57577e-50 4.15962e-50 3.74219e-50 3.32922e-50 2.92656e-50 2.53993e-50 2.17467e-50 1.83544e-50 1.52599e-50 1.24895e-50 1.00567e-50 7.96252e-51 6.19629e-51 4.73723e-51 3.55698e-51 2.6223e-51 1.89772e-51 1.34789e-51 9.39501e-52 6.42569e-52 4.31223e-52 2.83946e-52 1.83453e-52 1.16301e-52 7.23503e-53 4.41696e-53 2.64652e-53 1.55646e-53 8.98599e-54 5.09346e-54 2.83491e-54 1.54955e-54 8.31918e-55 4.38762e-55 2.27364e-55 1.15778e-55 5.79456e-56 2.85084e-56 1.37899e-56 6.55925e-57 3.06853e-57 1.41209e-57 6.39334e-58 2.84838e-58 1.24896e-58 5.39075e-59 2.29075e-59 9.58528e-60 3.95005e-60 1.6034e-60 6.41198e-61 2.52653e-61 9.81084e-62 3.75488e-62 1.41641e-62 5.25983e-63 1.90274e-63 6.1154e-64 0 
0 3.3746e-88 1.61298e-87 7.31405e-87 3.27964e-86 1.45687e-85 6.41134e-85 2.79497e-84 1.2069e-83 5.16181e-83 2.1864e-82 9.1711e-82 3.80925e-81 1.56657e-80 6.37843e-80 2.57095e-79 1.02578e-78 4.05091e-78 1.58326e-77 6.12366e-77 2.34364e-76 8.8746e-76 3.32463e-75 1.23206e-74 4.51618e-74 1.63726e-73 5.86982e-73 2.08089e-72 7.2936e-72 2.52731e-71 8.65664e-71 2.93067e-70 9.80533e-70 3.24178e-69 1.05896e-68 3.41744e-68 1.08941e-67 3.43005e-67 1.06653e-66 3.27453e-66 9.92609e-66 2.9703e-65 8.77318e-65 2.55735e-64 7.35595e-64 2.08757e-63 5.84437e-63 1.61385e-62 4.39496e-62 1.18018e-61 3.12446e-61 8.15399e-61 2.09733e-60 5.31612e-60 1.32766e-59 3.26639e-59 7.9154e-59 1.88897e-58 4.4387e-58 1.02681e-57 2.33804e-57 5.23924e-57 1.15522e-56 2.50591e-56 5.3468e-56 1.12196e-55 2.31492e-55 4.69565e-55 9.36227e-55 1.8345e-54 3.53209e-54 6.68112e-54 1.24136e-53 2.26521e-53 4.05892e-53 7.14069e-53 1.2332e-52 2.09039e-52 3.4775e-52 5.67676e-52 9.09243e-52 1.42878e-51 2.2025e-51 3.33051e-51 4.93999e-51 7.1871e-51 1.02564e-50 1.43569e-50 1.97141e-50 2.65577e-50 3.51041e-50 4.55364e-50 5.79817e-50 7.24903e-50 8.90173e-50 1.07412e-49 1.27415e-49 1.48669e-49 1.70737e-49 1.93129e-49 2.1534e-49 2.36884e-49 2.57328e-49 2.76317e-49 2.93593e-49 3.08998e-49 3.22465e-49 3.34009e-49 3.43697e-49 3.51629e-49 3.57911e-49 3.62637e-49 3.65877e-49 3.67674e-49 3.68052e-49 3.67025e-49 3.64619e-49 3.60894e-49 3.55962e-49 3.5e-49 3.43262e-49 3.36072e-49 3.28808e-49 3.21878e-49 3.1569e-49 3.10611e-49 3.06939e-49 3.04872e-49 3.0449e-49 3.05754e-49 3.0851e-49 3.12509e-49 3.17438e-49 3.22948e-49 3.28689e-49 3.34334e-49 3.39606e-49 3.44291e-49 3.4824e-49 3.51376e-49 3.53682e-49 3.55194e-49 3.55989e-49 3.56177e-49 3.55882e-49 3.55239e-49 3.54385e-49 3.53449e-49 3.52549e-49 3.51793e-49 3.51272e-49 3.5106e-49 3.51219e-49 3.51793e-49 3.5281e-49 3.54283e-49 3.56208e-49 3.58566e-49 3.61325e-49 3.6444e-49 3.67859e-49 3.71525e-49 3.75378e-49 3.7936e-49 3.8341e-49 3.87466e-49 3.91458e-49 3.95304e-49 3.98905e-49 4.02149e-49 4.0491e-49 4.0706e-49 4.08481e-49 4.09077e-49 4.08789e-49 4.07604e-49 4.05559e-49 4.02733e-49 3.99238e-49 3.95197e-49 3.90723e-49 3.859e-49 3.80763e-49 3.75291e-49 3.69407e-49 3.62986e-49 3.55872e-49 3.47899e-49 3.38908e-49 3.28771e-49 3.17401e-49 3.04762e-49 2.9087e-49 2.75791e-49 2.59633e-49 2.42546e-49 2.24708e-49 2.06324e-49 1.87622e-49 1.6885e-49 1.50265e-49 1.32131e-49 1.14708e-49 9.8238e-50 8.29334e-50 6.89655e-50 5.64546e-50 4.54644e-50 3.60011e-50 2.80177e-50 2.14212e-50 1.60846e-50 1.18578e-50 8.581e-51 6.09442e-51 4.24751e-51 2.90474e-51 1.94908e-51 1.2832e-51 8.28907e-52 5.25389e-52 3.26772e-52 1.99448e-52 1.19475e-52 7.02473e-53 4.05455e-53 2.29758e-53 1.27842e-53 6.98577e-54 3.74938e-54 1.97686e-54 1.02408e-54 5.21319e-55 2.60831e-55 1.28284e-55 6.20327e-56 2.94968e-56 1.37947e-56 6.34608e-57 2.8723e-57 1.27927e-57 5.60755e-58 2.41957e-58 1.02785e-58 4.29955e-59 1.77128e-59 7.18779e-60 2.87354e-60 1.13193e-60 4.39417e-61 1.68129e-61 6.34036e-62 2.35385e-62 8.51287e-63 2.73547e-63 0 
0 1.48195e-87 7.08356e-87 3.21216e-86 1.4404e-85 6.39877e-85 2.81608e-84 1.22771e-83 5.30172e-83 2.26763e-82 9.6057e-82 4.02949e-81 1.67379e-80 6.88408e-80 2.80315e-79 1.12997e-78 4.50885e-78 1.78077e-77 6.96069e-77 2.69253e-76 1.0306e-75 3.90301e-75 1.46234e-74 5.41995e-74 1.98698e-73 7.20447e-73 2.5833e-72 9.15936e-72 3.21091e-71 1.1128e-70 3.81228e-70 1.29086e-69 4.31972e-69 1.42843e-68 4.66706e-68 1.50644e-67 4.80326e-67 1.51265e-66 4.70444e-66 1.44473e-65 4.38044e-65 1.31113e-64 3.87358e-64 1.12942e-63 3.24953e-63 9.22446e-63 2.58319e-62 7.13519e-62 1.94367e-61 5.22087e-61 1.38261e-60 3.60935e-60 9.2867e-60 2.35466e-59 5.88245e-59 1.44772e-58 3.50939e-58 8.37781e-58 1.96928e-57 4.55711e-57 1.03801e-56 2.32686e-56 5.13238e-56 1.11371e-55 2.37714e-55 4.98987e-55 1.02991e-54 2.08984e-54 4.16822e-54 8.17028e-54 1.57362e-53 2.97757e-53 5.5342e-53 1.0102e-52 1.8107e-52 3.18646e-52 5.50464e-52 9.33356e-52 1.55313e-51 2.53602e-51 4.06292e-51 6.38589e-51 9.84614e-51 1.48917e-50 2.20919e-50 3.21459e-50 4.58798e-50 6.42292e-50 8.82035e-50 1.18829e-49 1.57073e-49 2.03752e-49 2.59432e-49 3.24332e-49 3.98243e-49 4.80484e-49 5.69888e-49 6.64845e-49 7.6339e-49 8.63332e-49 9.62407e-49 1.05844e-48 1.1495e-48 1.23402e-48 1.31084e-48 1.37926e-48 1.43903e-48 1.4902e-48 1.53311e-48 1.56819e-48 1.59595e-48 1.6168e-48 1.63107e-48 1.63895e-48 1.64055e-48 1.63593e-48 1.6252e-48 1.60862e-48 1.58668e-48 1.56018e-48 1.53024e-48 1.49829e-48 1.46601e-48 1.43521e-48 1.40771e-48 1.38515e-48 1.36884e-48 1.35966e-48 1.35798e-48 1.36361e-48 1.37586e-48 1.39365e-48 1.41556e-48 1.44005e-48 1.46556e-48 1.49064e-48 1.51406e-48 1.53485e-48 1.55238e-48 1.5663e-48 1.57652e-48 1.58321e-48 1.58673e-48 1.58754e-48 1.58622e-48 1.58336e-48 1.57955e-48 1.57538e-48 1.57138e-48 1.56802e-48 1.5657e-48 1.56475e-48 1.56545e-48 1.56799e-48 1.5725e-48 1.57903e-48 1.58756e-48 1.59802e-48 1.61026e-48 1.62408e-48 1.63924e-48 1.65551e-48 1.67261e-48 1.69027e-48 1.70825e-48 1.72626e-48 1.74398e-48 1.76106e-48 1.77706e-48 1.79147e-48 1.80375e-48 1.81331e-48 1.81964e-48 1.82229e-48 1.82103e-48 1.81577e-48 1.80669e-48 1.79415e-48 1.77863e-48 1.7607e-48 1.74085e-48 1.71945e-48 1.69667e-48 1.67241e-48 1.64633e-48 1.61788e-48 1.58637e-48 1.55104e-48 1.51119e-48 1.46626e-48 1.41584e-48 1.35978e-48 1.29813e-48 1.23118e-48 1.1594e-48 1.08345e-48 1.0041e-48 9.22268e-49 8.38964e-49 7.5528e-49 6.72372e-49 5.9142e-49 5.13588e-49 4.39965e-49 3.71513e-49 3.09008e-49 2.52997e-49 2.03775e-49 1.61379e-49 1.25602e-49 9.60354e-50 7.21113e-50 5.31611e-50 3.84687e-50 2.73194e-50 1.90384e-50 1.30182e-50 8.73394e-51 5.74914e-51 3.71308e-51 2.35299e-51 1.46315e-51 8.92832e-52 5.34696e-52 3.14301e-52 1.81359e-52 1.02741e-52 5.71501e-53 3.12195e-53 1.67508e-53 8.82905e-54 4.57227e-54 2.32681e-54 1.16379e-54 5.72194e-55 2.76596e-55 1.31478e-55 6.14675e-56 2.82679e-56 1.27901e-56 5.69456e-57 2.49533e-57 1.07634e-57 4.5709e-58 1.91141e-58 7.87191e-59 3.19339e-59 1.27626e-59 5.02585e-60 1.95045e-60 7.46057e-61 2.81265e-61 1.0439e-61 3.77433e-62 1.21256e-62 0 
0 6.4465e-87 3.08146e-86 1.39739e-85 6.26648e-85 2.78393e-84 1.22526e-83 5.34202e-83 2.30703e-82 9.86818e-82 4.18046e-81 1.75379e-80 7.28557e-80 2.99671e-79 1.22035e-78 4.91976e-78 1.9633e-77 7.75488e-77 3.03157e-76 1.1728e-75 4.4896e-75 1.70049e-74 6.37206e-74 2.36203e-73 8.66059e-73 3.14066e-72 1.12632e-71 3.99413e-71 1.40042e-70 4.85426e-70 1.66329e-69 5.63308e-69 1.88541e-68 6.23588e-68 2.03784e-67 6.5792e-67 2.09823e-66 6.60928e-66 2.05601e-65 6.3155e-65 1.91534e-64 5.73437e-64 1.69459e-63 4.94226e-63 1.42236e-62 4.03879e-62 1.13134e-61 3.12586e-61 8.51758e-61 2.2886e-60 6.06267e-60 1.58318e-59 4.07478e-59 1.03351e-58 2.5828e-58 6.35863e-58 1.54192e-57 3.68225e-57 8.65852e-57 2.00438e-56 4.56719e-56 1.02418e-55 2.25986e-55 4.90562e-55 1.04746e-54 2.19953e-54 4.54151e-54 9.21874e-54 1.83936e-53 3.60669e-53 6.94906e-53 1.31535e-52 2.44559e-52 4.46562e-52 8.00691e-52 1.40951e-51 2.43569e-51 4.13115e-51 6.87628e-51 1.1231e-50 1.79976e-50 2.82944e-50 4.36356e-50 6.60093e-50 9.7943e-50 1.42539e-49 2.03464e-49 2.8487e-49 3.91233e-49 5.27105e-49 6.9677e-49 9.03837e-49 1.1508e-48 1.4386e-48 1.76629e-48 2.1308e-48 2.52692e-48 2.94747e-48 3.38371e-48 3.82588e-48 4.26394e-48 4.68825e-48 5.09028e-48 5.46306e-48 5.80158e-48 6.10283e-48 6.36564e-48 6.59043e-48 6.77867e-48 6.93244e-48 7.05394e-48 7.14509e-48 7.20734e-48 7.24157e-48 7.24822e-48 7.22758e-48 7.18013e-48 7.107e-48 7.01032e-48 6.89357e-48 6.76167e-48 6.62092e-48 6.47873e-48 6.3431e-48 6.22198e-48 6.12261e-48 6.05079e-48 6.01041e-48 6.00304e-48 6.0279e-48 6.08195e-48 6.16034e-48 6.2569e-48 6.36478e-48 6.47712e-48 6.58755e-48 6.69062e-48 6.78215e-48 6.85925e-48 6.92042e-48 6.96534e-48 6.99472e-48 7.01012e-48 7.01363e-48 7.00773e-48 6.99506e-48 6.97827e-48 6.95989e-48 6.94225e-48 6.92741e-48 6.91716e-48 6.91298e-48 6.91602e-48 6.92716e-48 6.94695e-48 6.97563e-48 7.01314e-48 7.05912e-48 7.11291e-48 7.17367e-48 7.24036e-48 7.31188e-48 7.38708e-48 7.4648e-48 7.54388e-48 7.62311e-48 7.70111e-48 7.77629e-48 7.84673e-48 7.91022e-48 7.9643e-48 8.00646e-48 8.03436e-48 8.04612e-48 8.04058e-48 8.01749e-48 7.97756e-48 7.92236e-48 7.85409e-48 7.77518e-48 7.68787e-48 7.5938e-48 7.49368e-48 7.38711e-48 7.27258e-48 7.14766e-48 7.00929e-48 6.85417e-48 6.67919e-48 6.48181e-48 6.26027e-48 6.01382e-48 5.74269e-48 5.44808e-48 5.13207e-48 4.79745e-48 4.44765e-48 4.08664e-48 3.71885e-48 3.3491e-48 2.9825e-48 2.62428e-48 2.27962e-48 1.95339e-48 1.64989e-48 1.3726e-48 1.12402e-48 9.05473e-49 7.17169e-49 5.58224e-49 4.26839e-49 3.20511e-49 2.3628e-49 1.7097e-49 1.21409e-49 8.45994e-50 5.78404e-50 3.87994e-50 2.55354e-50 1.64888e-50 1.04468e-50 6.49455e-51 3.96208e-51 2.37217e-51 1.39401e-51 8.04142e-52 4.55414e-52 2.53249e-52 1.38299e-52 7.418e-53 3.9086e-53 2.02345e-53 1.02938e-53 5.1468e-54 2.52963e-54 1.22239e-54 5.80853e-55 2.7146e-55 1.24796e-55 5.64457e-56 2.51228e-56 1.10049e-56 4.74526e-57 2.01449e-57 8.42114e-58 3.46699e-58 1.40599e-58 5.61731e-59 2.21137e-59 8.57928e-60 3.28061e-60 1.23642e-60 4.58757e-61 1.65822e-61 5.32608e-62 0 
0 2.77754e-86 1.32773e-85 6.0213e-85 2.70032e-84 1.1997e-83 5.28043e-83 2.30235e-82 9.94368e-82 4.25365e-81 1.80211e-80 7.56084e-80 3.14118e-79 1.29215e-78 5.26251e-78 2.12176e-77 8.46809e-77 3.34519e-76 1.30787e-75 5.06028e-75 1.93737e-74 7.33898e-74 2.75044e-73 1.0197e-72 3.73937e-72 1.35625e-71 4.86464e-71 1.72538e-70 6.05061e-70 2.0977e-69 7.18904e-69 2.43519e-68 8.15231e-68 2.69689e-67 8.81516e-67 2.84662e-66 9.08047e-66 2.86097e-65 8.90204e-65 2.73515e-64 8.29722e-64 2.48477e-63 7.34487e-63 2.14272e-62 6.1684e-62 1.75204e-61 4.90924e-61 1.35682e-60 3.69834e-60 9.94031e-60 2.63412e-59 6.88093e-59 1.7716e-58 4.49496e-58 1.12371e-57 2.76746e-57 6.71328e-57 1.60378e-56 3.77255e-56 8.73641e-56 1.99143e-55 4.46739e-55 9.86111e-55 2.14143e-54 4.57416e-54 9.60886e-54 1.98476e-53 4.03037e-53 8.04459e-53 1.57801e-52 3.0415e-52 5.75921e-52 1.07118e-51 1.95665e-51 3.5095e-51 6.18005e-51 1.06829e-50 1.81248e-50 3.01776e-50 4.93028e-50 7.90287e-50 1.24274e-49 1.91699e-49 2.90051e-49 4.30452e-49 6.26552e-49 8.94482e-49 1.25251e-48 1.72031e-48 2.31789e-48 3.06407e-48 3.97466e-48 5.06053e-48 6.32574e-48 7.76594e-48 9.36749e-48 1.11073e-47 1.29536e-47 1.48677e-47 1.68068e-47 1.87265e-47 2.05847e-47 2.23437e-47 2.39733e-47 2.54517e-47 2.67658e-47 2.7911e-47 2.88894e-47 2.97076e-47 3.03753e-47 3.09021e-47 3.12968e-47 3.15657e-47 3.17128e-47 3.17401e-47 3.16487e-47 3.14407e-47 3.11209e-47 3.06986e-47 3.01888e-47 2.96129e-47 2.89985e-47 2.83777e-47 2.77856e-47 2.72569e-47 2.68232e-47 2.65098e-47 2.63337e-47 2.63017e-47 2.64105e-47 2.66467e-47 2.69892e-47 2.74108e-47 2.78819e-47 2.83722e-47 2.88541e-47 2.93038e-47 2.97029e-47 3.0039e-47 3.03055e-47 3.05011e-47 3.06289e-47 3.06957e-47 3.07106e-47 3.06846e-47 3.06291e-47 3.05556e-47 3.04752e-47 3.03981e-47 3.03333e-47 3.02884e-47 3.027e-47 3.02831e-47 3.03316e-47 3.04177e-47 3.05426e-47 3.0706e-47 3.09062e-47 3.11406e-47 3.14054e-47 3.1696e-47 3.20077e-47 3.23355e-47 3.26743e-47 3.30191e-47 3.33646e-47 3.37048e-47 3.40328e-47 3.43402e-47 3.46174e-47 3.48535e-47 3.50377e-47 3.51597e-47 3.52113e-47 3.51873e-47 3.50868e-47 3.49127e-47 3.4672e-47 3.43743e-47 3.40302e-47 3.36497e-47 3.32398e-47 3.28037e-47 3.23397e-47 3.18413e-47 3.12978e-47 3.06958e-47 3.00209e-47 2.92594e-47 2.84003e-47 2.74356e-47 2.63621e-47 2.51804e-47 2.38958e-47 2.25171e-47 2.10562e-47 1.95279e-47 1.79495e-47 1.63402e-47 1.4721e-47 1.31143e-47 1.15431e-47 1.00303e-47 8.59739e-48 7.2635e-48 6.04417e-48 4.95049e-48 3.98859e-48 3.1595e-48 2.45948e-48 1.8807e-48 1.41223e-48 1.04107e-48 7.53277e-49 5.34874e-49 3.72667e-49 2.54757e-49 1.70864e-49 1.12432e-49 7.25851e-50 4.59773e-50 2.85762e-50 1.74287e-50 1.04321e-50 6.12863e-51 3.53428e-51 2.00096e-51 1.11234e-51 6.07248e-52 3.25602e-52 1.71503e-52 8.87549e-53 4.51356e-53 2.25594e-53 1.10838e-53 5.35407e-54 2.54322e-54 1.18813e-54 5.46015e-55 2.46874e-55 1.09839e-55 4.8097e-56 2.07319e-56 8.79811e-57 3.67659e-57 1.51313e-57 6.13421e-58 2.44996e-58 9.64159e-59 3.73935e-59 1.42942e-59 5.38564e-60 1.99765e-60 7.21863e-61 2.31803e-61 0 
0 1.18524e-85 5.66597e-85 2.56966e-84 1.15246e-83 5.12043e-83 2.25387e-82 9.82788e-82 4.24488e-81 1.81599e-80 7.69426e-80 3.22844e-79 1.34139e-78 5.51842e-78 2.2477e-77 9.06335e-77 3.61764e-76 1.42926e-75 5.58866e-75 2.16259e-74 8.28074e-74 3.13728e-73 1.17594e-72 4.36032e-72 1.59924e-71 5.80132e-71 2.08119e-70 7.38285e-70 2.58951e-69 8.97933e-69 3.07792e-68 1.04282e-67 3.49178e-67 1.15538e-66 3.77737e-66 1.22008e-65 3.89289e-65 1.22683e-64 3.8183e-64 1.17348e-63 3.56077e-63 1.06664e-62 3.15383e-62 9.20335e-62 2.65022e-61 7.52982e-61 2.11053e-60 5.83497e-60 1.59098e-59 4.27761e-59 1.13392e-58 2.96309e-58 7.63164e-58 1.93701e-57 4.84416e-57 1.19345e-56 2.89616e-56 6.92142e-56 1.62874e-55 3.77328e-55 8.60439e-55 1.93099e-54 4.26407e-54 9.26348e-54 1.9795e-53 4.15995e-53 8.59603e-53 1.74625e-52 3.48688e-52 6.84247e-52 1.31935e-51 2.49919e-51 4.65009e-51 8.49713e-51 1.52462e-50 2.68572e-50 4.64412e-50 7.88186e-50 1.31273e-49 2.14532e-49 3.43975e-49 5.41046e-49 8.34793e-49 1.26337e-48 1.87527e-48 2.73006e-48 3.89807e-48 5.45896e-48 7.49854e-48 1.01039e-47 1.3357e-47 1.73265e-47 2.20594e-47 2.75728e-47 3.38472e-47 4.08223e-47 4.83965e-47 5.64306e-47 6.47556e-47 7.31838e-47 8.15222e-47 8.95866e-47 9.72143e-47 1.04274e-46 1.10671e-46 1.16351e-46 1.21296e-46 1.25514e-46 1.29038e-46 1.31909e-46 1.34172e-46 1.35864e-46 1.37015e-46 1.37641e-46 1.3775e-46 1.37349e-46 1.36446e-46 1.3506e-46 1.33231e-46 1.31025e-46 1.28533e-46 1.25875e-46 1.23189e-46 1.20627e-46 1.1834e-46 1.16464e-46 1.15108e-46 1.14347e-46 1.1421e-46 1.14682e-46 1.15705e-46 1.17187e-46 1.19012e-46 1.2105e-46 1.23172e-46 1.25255e-46 1.27199e-46 1.28924e-46 1.30376e-46 1.31527e-46 1.32371e-46 1.32922e-46 1.33208e-46 1.33271e-46 1.33157e-46 1.32916e-46 1.32597e-46 1.32249e-46 1.31915e-46 1.31634e-46 1.3144e-46 1.3136e-46 1.31416e-46 1.31624e-46 1.31996e-46 1.32534e-46 1.3324e-46 1.34104e-46 1.35116e-46 1.3626e-46 1.37515e-46 1.38861e-46 1.40277e-46 1.41741e-46 1.43231e-46 1.44724e-46 1.46194e-46 1.47612e-46 1.48942e-46 1.50141e-46 1.51163e-46 1.51961e-46 1.5249e-46 1.52714e-46 1.52611e-46 1.52177e-46 1.51425e-46 1.50385e-46 1.49098e-46 1.47612e-46 1.45968e-46 1.44198e-46 1.42316e-46 1.40314e-46 1.38165e-46 1.35822e-46 1.33227e-46 1.30317e-46 1.27034e-46 1.23328e-46 1.19167e-46 1.14533e-46 1.0943e-46 1.0388e-46 9.7919e-47 9.15987e-47 8.49822e-47 7.81431e-47 7.11644e-47 6.4137e-47 5.71581e-47 5.0328e-47 4.37467e-47 3.75085e-47 3.16977e-47 2.63828e-47 2.16133e-47 1.74166e-47 1.3798e-47 1.07418e-47 8.21443e-48 6.16836e-48 4.54714e-48 3.28994e-48 2.33587e-48 1.6273e-48 1.11228e-48 7.45874e-49 4.90705e-49 3.16728e-49 2.00577e-49 1.24633e-49 7.59933e-50 4.5473e-50 2.67065e-50 1.53963e-50 8.71391e-51 4.84248e-51 2.64268e-51 1.41649e-51 7.45833e-52 3.85836e-52 1.96141e-52 9.79975e-53 4.81299e-53 2.32405e-53 1.10352e-53 5.15344e-54 2.3674e-54 1.06999e-54 4.75879e-55 2.08304e-55 8.97547e-56 3.80758e-56 1.59055e-56 6.54371e-57 2.65186e-57 1.05877e-57 4.16525e-58 1.61488e-58 6.17108e-59 2.32432e-59 8.61866e-60 3.11347e-60 9.99549e-61 0 