# vtk DataFile Version 3.0
Gray-Scott Simulation Output
ASCII
DATASET STRUCTURED_POINTS
DIMENSIONS 256 256 1
SPACING 1.0 1.0 1.0
ORIGIN 0 0 0
POINT_DATA 65536
SCALARS u double
LOOKUP_TABLE default
0 0 0 0 0 0 0 0 0 0 0 0 0 0 0 0 0 0 0 0 0 0 0 0 0 0 0 0 0 0 0 0 0 0 0 0 0 0 0 0 0 0 0 0 0 0 0 0 0 0 0 0 0 0 0 0 0 0 0 0 0 0 0 0 0 0 0 0 0 0 0 0 0 0 0 0 0 0 0 0 0 0 0 0 0 0 0 0 0 0 0 0 0 0 0 0 0 0 0 0 0 0 0 0 0 0 0 0 0 0 0 0 0 0 0 0 0 0 0 0 0 0 0 0 0 0 0 0 0 0 0 0 0 0 0 0 0 0 0 0 0 0 0 0 0 0 0 0 0 0 0 0 0 0 0 0 0 0 0 0 0 0 0 0 0 0 0 0 0 0 0 0 0 0 0 0 0 0 0 0 0 0 0 0 0 0 0 0 0 0 0 0 0 0 0 0 0 0 0 0 0 0 0 0 0 0 0 0 0 0 0 0 0 0 0 0 0 0 0 0 0 0 0 0 0 0 0 0 0 0 0 0 0 0 0 0 0 0 0 0 0 0 0 0 0 0 0 0 0 0 0 0 0 0 0 0 
0 9.3462e-148 1.15205e-146 1.39629e-145 1.67445e-144 1.9867e-143 2.33192e-142 2.70752e-141 3.10926e-140 3.53121e-139 3.96575e-138 4.40364e-137 4.83429e-136 5.24611e-135 5.62696e-134 5.96469e-133 6.24778e-132 6.46594e-131 6.6107e-130 6.676e-129 6.65852e-128 6.55799e-127 6.37724e-126 6.12211e-125 5.80108e-124 5.42487e-123 5.00581e-122 4.55715e-121 4.09237e-120 3.62447e-119 3.16538e-118 2.72547e-117 2.31319e-116 1.93488e-115 1.59473e-114 1.29486e-113 1.03555e-112 8.15532e-112 6.32326e-111 4.82584e-110 3.62442e-109 2.67815e-108 1.94652e-107 1.39123e-106 9.77572e-106 6.75133e-105 4.58145e-104 3.054e-103 1.99922e-102 1.28483e-101 8.10391e-101 5.01494e-100 3.0438e-99 1.81133e-98 1.05647e-97 6.03725e-97 3.37889e-96 1.85138e-95 9.92722e-95 5.20699e-94 2.67045e-93 1.33852e-92 6.55393e-92 3.13334e-91 1.46191e-90 6.65298e-90 2.95158e-89 1.27582e-88 5.3699e-88 2.19947e-87 8.76133e-87 3.39182e-86 1.27529e-85 4.65353e-85 1.64678e-84 5.64713e-84 1.87505e-83 6.02317e-83 1.87021e-82 5.60816e-82 1.6226e-81 4.52528e-81 1.21535e-80 3.14004e-80 7.79657e-80 1.85845e-79 4.24838e-79 9.30381e-79 1.94991e-78 3.90703e-78 7.4773e-78 1.36561e-77 2.37827e-77 3.94716e-77 6.24056e-77 9.3978e-77 1.34833e-76 1.84433e-76 2.40832e-76 3.00805e-76 3.60402e-76 4.1577e-76 4.64003e-76 5.03685e-76 5.34947e-76 5.59044e-76 5.77699e-76 5.92517e-76 6.0468e-76 6.14981e-76 6.24023e-76 6.32381e-76 6.40575e-76 6.48859e-76 6.56943e-76 6.63816e-76 6.67771e-76 6.66653e-76 6.58286e-76 6.4099e-76 6.14097e-76 5.78373e-76 5.36216e-76 4.91524e-76 4.49188e-76 4.14249e-76 3.90922e-76 3.81736e-76 3.87047e-76 4.0506e-76 4.32326e-76 4.64564e-76 4.97555e-76 5.27893e-76 5.53428e-76 5.73353e-76 5.8795e-76 5.98137e-76 6.04963e-76 6.09216e-76 6.11255e-76 6.11078e-76 6.08556e-76 6.03705e-76 5.96881e-76 5.88815e-76 5.80486e-76 5.72883e-76 5.66756e-76 5.62448e-76 5.59866e-76 5.58609e-76 5.58191e-76 5.58302e-76 5.58995e-76 5.60747e-76 5.64346e-76 5.70623e-76 5.8011e-76 5.92733e-76 6.0766e-76 6.2339e-76 6.381e-76 6.50176e-76 6.58766e-76 6.64167e-76 6.67871e-76 6.72208e-76 6.79618e-76 6.91768e-76 7.08772e-76 7.28836e-76 7.48504e-76 7.63508e-76 7.69966e-76 7.65563e-76 7.50278e-76 7.26435e-76 6.98064e-76 6.69823e-76 6.45855e-76 6.28932e-76 6.20043e-76 6.1842e-76 6.21841e-76 6.27086e-76 6.3047e-76 6.28454e-76 6.18294e-76 5.98603e-76 5.69661e-76 5.33312e-76 4.92432e-76 4.50118e-76 4.08864e-76 3.69996e-76 3.3356e-76 2.98662e-76 2.64096e-76 2.29014e-76 1.93362e-76 1.5795e-76 1.2419e-76 9.36286e-77 6.75057e-77 4.64675e-77 3.05089e-77 1.9099e-77 1.14004e-77 6.49085e-78 3.52699e-78 1.83038e-78 9.07985e-79 4.30933e-79 1.95864e-79 8.53374e-80 3.56782e-80 1.43279e-80 5.53235e-81 2.05595e-81 7.3606e-82 2.54109e-82 8.46705e-83 2.72545e-83 8.48232e-84 2.55461e-84 7.45108e-85 2.10639e-85 5.77578e-86 1.53727e-86 3.97428e-87 9.98691e-88 2.4409e-88 5.8061e-89 1.34492e-89 3.03556e-90 6.67964e-91 1.43374e-91 3.00344e-92 6.14346e-93 1.22761e-93 2.39754e-94 4.57847e-95 8.55288e-96 1.56359e-96 2.7985e-97 4.90556e-98 8.42512e-99 1.41822e-99 2.34071e-100 3.78905e-101 6.0178e-102 9.37997e-103 1.43473e-103 2.11084e-104 0 
0 1.15132e-146 1.4185e-145 1.71842e-144 2.05979e-143 2.44276e-142 2.86588e-141 3.32592e-140 3.81765e-139 4.33373e-138 4.86477e-137 5.39943e-136 5.92474e-135 6.4265e-134 6.88989e-133 7.30008e-132 7.64307e-131 7.90634e-130 8.0797e-129 8.15581e-128 8.1308e-127 8.00444e-126 7.78035e-125 7.46574e-124 7.07111e-123 6.60961e-122 6.09634e-121 5.5475e-120 4.97953e-119 4.40826e-118 3.84822e-117 3.31198e-116 2.80977e-115 2.34924e-114 1.93541e-113 1.57081e-112 1.2557e-111 9.88494e-111 7.6611e-110 5.84443e-109 4.3876e-108 3.24074e-107 2.35445e-106 1.6821e-105 1.18147e-104 8.15622e-104 5.53259e-103 3.68656e-102 2.41235e-101 1.54973e-100 9.77089e-100 6.04417e-99 3.66708e-98 2.18141e-97 1.27184e-96 7.26523e-96 4.06466e-95 2.22631e-94 1.19332e-93 6.25692e-93 3.20777e-92 1.60727e-91 7.86713e-91 3.75987e-90 1.75363e-89 7.97787e-89 3.53819e-88 1.52888e-87 6.43298e-87 2.63407e-86 1.04892e-85 4.05951e-85 1.52587e-84 5.56629e-84 1.96922e-83 6.75094e-83 2.24094e-82 7.19658e-82 2.23398e-81 6.69727e-81 1.93723e-80 5.40149e-80 1.45034e-79 3.74634e-79 9.30001e-79 2.21638e-78 5.0656e-78 1.10915e-77 2.32417e-77 4.65619e-77 8.90969e-77 1.62699e-76 2.83312e-76 4.70153e-76 7.43252e-76 1.11919e-75 1.60562e-75 2.19615e-75 2.86761e-75 3.58163e-75 4.29117e-75 4.95041e-75 5.52471e-75 5.99723e-75 6.36946e-75 6.65633e-75 6.87838e-75 7.05471e-75 7.19942e-75 7.32199e-75 7.42961e-75 7.52913e-75 7.62673e-75 7.72539e-75 7.82165e-75 7.90347e-75 7.95054e-75 7.93724e-75 7.83769e-75 7.63192e-75 7.31201e-75 6.88707e-75 6.38563e-75 5.85408e-75 5.35059e-75 4.93511e-75 4.65778e-75 4.54866e-75 4.612e-75 4.8264e-75 5.15086e-75 5.53444e-75 5.92696e-75 6.28791e-75 6.59173e-75 6.82879e-75 7.00245e-75 7.12361e-75 7.20474e-75 7.2552e-75 7.27929e-75 7.27699e-75 7.24683e-75 7.18902e-75 7.10782e-75 7.01194e-75 6.913e-75 6.82276e-75 6.7501e-75 6.69905e-75 6.66851e-75 6.65366e-75 6.64874e-75 6.65006e-75 6.65825e-75 6.67901e-75 6.7217e-75 6.7962e-75 6.90885e-75 7.05876e-75 7.23606e-75 7.42292e-75 7.59769e-75 7.74119e-75 7.84333e-75 7.90762e-75 7.95178e-75 8.00347e-75 8.09166e-75 8.23613e-75 8.43821e-75 8.67658e-75 8.91021e-75 9.08839e-75 9.16506e-75 9.1127e-75 8.9311e-75 8.64785e-75 8.31082e-75 7.97531e-75 7.69053e-75 7.4894e-75 7.38369e-75 7.36427e-75 7.40474e-75 7.46685e-75 7.50682e-75 7.48259e-75 7.36153e-75 7.12716e-75 6.78278e-75 6.3503e-75 5.86387e-75 5.36033e-75 4.86932e-75 4.40661e-75 3.97279e-75 3.5572e-75 3.14555e-75 2.72776e-75 2.30316e-75 1.88144e-75 1.47937e-75 1.11539e-75 8.04244e-76 5.53647e-76 3.63539e-76 2.27604e-76 1.35874e-76 7.73693e-77 4.20462e-77 2.18235e-77 1.08274e-77 5.13949e-78 2.33633e-78 1.0181e-78 4.25729e-79 1.70999e-79 6.60396e-80 2.45469e-80 8.78998e-81 3.03522e-81 1.01158e-81 3.25694e-82 1.01389e-82 3.05429e-83 8.9108e-84 2.51972e-84 6.91101e-85 1.83993e-85 4.75811e-86 1.19601e-86 2.92404e-87 6.95745e-88 1.61212e-88 3.6398e-89 8.01181e-90 1.72025e-90 3.60481e-91 7.37604e-92 1.47442e-92 2.88055e-93 5.50278e-94 1.02832e-94 1.88059e-95 3.3671e-96 5.90444e-97 1.01444e-97 1.70828e-98 2.82051e-99 4.56748e-100 7.25689e-101 1.13158e-101 1.7315e-102 2.54843e-103 0 
0 1.39449e-145 1.71729e-144 2.07941e-143 2.4913e-142 2.9531e-141 3.463e-140 4.017e-139 4.60873e-138 5.2293e-137 5.86733e-136 6.50915e-135 7.13909e-134 7.7401e-133 8.29436e-132 8.78412e-131 9.19259e-130 9.50488e-129 9.70884e-128 9.79583e-127 9.76134e-126 9.60528e-125 9.33215e-124 8.95076e-123 8.47383e-122 7.91723e-121 7.29916e-120 6.63908e-119 5.9567e-118 5.27101e-117 4.59934e-116 3.95669e-115 3.35526e-114 2.80411e-113 2.30915e-112 1.87334e-111 1.4969e-110 1.17787e-109 9.12492e-109 6.95819e-108 5.22155e-107 3.8551e-106 2.79962e-105 1.99933e-104 1.40371e-103 9.68647e-103 6.56794e-102 4.37468e-101 2.86149e-100 1.83754e-99 1.15809e-98 7.16104e-98 4.34302e-97 2.5825e-96 1.50512e-95 8.59457e-95 4.80658e-94 2.6317e-93 1.4101e-92 7.39086e-92 3.78775e-91 1.8972e-90 9.283e-90 4.43501e-89 2.06782e-88 9.40404e-88 4.16931e-87 1.80101e-86 7.57553e-86 3.10092e-85 1.23445e-84 4.77606e-84 1.79467e-83 6.54492e-83 2.31476e-82 7.93333e-82 2.6327e-81 8.45245e-81 2.62315e-80 7.86198e-80 2.27357e-79 6.33781e-79 1.70135e-78 4.39377e-78 1.09049e-77 2.59834e-77 5.93744e-77 1.29981e-76 2.72322e-76 5.45476e-76 1.04362e-75 1.90549e-75 3.31767e-75 5.50503e-75 8.7019e-75 1.31022e-74 1.87956e-74 2.57071e-74 3.35655e-74 4.19222e-74 5.02267e-74 5.79426e-74 6.46648e-74 7.01957e-74 7.45526e-74 7.791e-74 8.05081e-74 8.25706e-74 8.42631e-74 8.56967e-74 8.6956e-74 8.81209e-74 8.92635e-74 9.04186e-74 9.15453e-74 9.25027e-74 9.30533e-74 9.28977e-74 9.17335e-74 8.93271e-74 8.55862e-74 8.06174e-74 7.47545e-74 6.854e-74 6.26538e-74 5.77972e-74 5.45561e-74 5.32822e-74 5.40246e-74 5.65334e-74 6.03287e-74 6.48151e-74 6.9406e-74 7.36274e-74 7.71808e-74 7.99533e-74 8.19842e-74 8.34007e-74 8.43485e-74 8.4937e-74 8.52166e-74 8.51877e-74 8.4833e-74 8.41558e-74 8.3206e-74 8.20856e-74 8.09304e-74 7.98776e-74 7.90305e-74 7.84361e-74 7.80808e-74 7.79085e-74 7.78516e-74 7.78669e-74 7.79622e-74 7.8204e-74 7.87017e-74 7.95708e-74 8.08856e-74 8.26357e-74 8.47057e-74 8.68876e-74 8.89286e-74 9.0605e-74 9.17987e-74 9.25509e-74 9.30684e-74 9.36739e-74 9.47057e-74 9.63942e-74 9.87548e-74 1.01539e-73 1.04266e-73 1.06347e-73 1.07241e-73 1.06629e-73 1.04509e-73 1.01201e-73 9.72653e-74 9.33472e-74 9.00212e-74 8.76715e-74 8.64357e-74 8.62072e-74 8.66778e-74 8.74008e-74 8.78648e-74 8.75785e-74 8.61606e-74 8.34184e-74 7.93904e-74 7.43321e-74 6.86427e-74 6.27523e-74 5.70075e-74 5.15928e-74 4.65151e-74 4.16501e-74 3.68309e-74 3.19396e-74 2.69687e-74 2.20313e-74 1.7324e-74 1.30624e-74 9.41926e-75 6.4848e-75 4.25848e-75 2.66641e-75 1.59195e-75 9.06597e-76 4.9275e-76 2.55789e-76 1.26924e-76 6.02566e-77 2.7396e-77 1.19404e-77 4.99385e-78 2.0062e-78 7.74944e-79 2.88104e-79 1.03189e-79 3.56392e-80 1.18806e-80 3.82602e-81 1.19133e-81 3.58972e-82 1.04756e-82 2.96298e-83 8.129e-84 2.1648e-84 5.59984e-85 1.408e-85 3.44334e-86 8.19558e-87 1.8996e-87 4.29022e-88 9.44655e-89 2.02897e-89 4.25317e-90 8.70562e-91 1.74079e-91 3.40214e-92 6.50149e-93 1.21539e-93 2.2235e-94 3.98251e-95 6.9862e-96 1.20075e-96 2.02278e-97 3.34104e-98 5.4125e-99 8.60282e-100 1.34197e-100 2.05425e-101 3.02461e-102 0 
0 1.67117e-144 2.05705e-143 2.48963e-142 2.98137e-141 3.53234e-140 4.1403e-139 4.80039e-138 5.50494e-137 6.24327e-136 7.00175e-135 7.76404e-134 8.51148e-133 9.22375e-132 9.87968e-131 1.04582e-129 1.09395e-128 1.1306e-127 1.15433e-126 1.16414e-125 1.15952e-124 1.14047e-123 1.10754e-122 1.06179e-121 1.00477e-120 9.38351e-120 8.64713e-119 7.86166e-118 7.05051e-117 6.23616e-116 5.43912e-115 4.6771e-114 3.96444e-113 3.31178e-112 2.72605e-111 2.2106e-110 1.76564e-109 1.38874e-108 1.0754e-107 8.19701e-107 6.14861e-106 4.53766e-105 3.29395e-104 2.35138e-103 1.65021e-102 1.13829e-101 7.71508e-101 5.1367e-100 3.35859e-99 2.1559e-98 1.35821e-97 8.3952e-97 5.08955e-96 3.02526e-95 1.7625e-94 1.00605e-93 5.62431e-93 3.0783e-92 1.64879e-91 8.63883e-91 4.42575e-90 2.21598e-89 1.0839e-88 5.17663e-88 2.41278e-87 1.09692e-86 4.86164e-86 2.09939e-85 8.82781e-85 3.61239e-84 1.43761e-83 5.56044e-83 2.08879e-82 7.61534e-82 2.69258e-81 9.22567e-81 3.06074e-80 9.82412e-80 3.04805e-79 9.13324e-79 2.64057e-78 7.35913e-78 1.97508e-77 5.09958e-77 1.26541e-76 3.01451e-76 6.88716e-76 1.50745e-75 3.15773e-75 6.32411e-75 1.20978e-74 2.20856e-74 3.84489e-74 6.37917e-74 1.00827e-73 1.51801e-73 2.17749e-73 2.97805e-73 3.88827e-73 4.85621e-73 5.81813e-73 6.71191e-73 7.49062e-73 8.13134e-73 8.63604e-73 9.0249e-73 9.32574e-73 9.5645e-73 9.76039e-73 9.92634e-73 1.00722e-72 1.02071e-72 1.03395e-72 1.04733e-72 1.06038e-72 1.07147e-72 1.07784e-72 1.07604e-72 1.06257e-72 1.03472e-72 9.91425e-73 9.33928e-73 8.66088e-73 7.94183e-73 7.26083e-73 6.699e-73 6.32416e-73 6.17697e-73 6.2631e-73 6.55362e-73 6.99299e-73 7.5123e-73 8.04367e-73 8.53228e-73 8.94356e-73 9.26446e-73 9.4995e-73 9.66339e-73 9.77297e-73 9.8409e-73 9.87302e-73 9.86942e-73 9.82816e-73 9.74965e-73 9.6397e-73 9.51014e-73 9.37666e-73 9.25509e-73 9.15736e-73 9.08886e-73 9.04798e-73 9.02818e-73 9.02167e-73 9.02344e-73 9.03441e-73 9.06226e-73 9.11969e-73 9.22004e-73 9.37189e-73 9.57408e-73 9.81325e-73 1.00654e-72 1.03013e-72 1.04951e-72 1.06331e-72 1.07202e-72 1.07802e-72 1.08504e-72 1.09699e-72 1.11652e-72 1.14381e-72 1.17598e-72 1.2075e-72 1.23153e-72 1.24187e-72 1.23479e-72 1.21028e-72 1.17205e-72 1.12657e-72 1.08129e-72 1.04285e-72 1.01568e-72 1.00139e-72 9.98727e-73 1.00414e-72 1.01247e-72 1.0178e-72 1.01445e-72 9.98018e-73 9.66267e-73 9.1964e-73 8.61092e-73 7.95236e-73 7.27045e-73 6.60527e-73 5.97819e-73 5.39002e-73 4.8264e-73 4.26803e-73 3.70129e-73 3.12533e-73 2.55325e-73 2.0078e-73 1.51398e-73 1.09181e-73 7.51727e-74 4.93693e-74 3.09151e-74 1.84595e-74 1.05137e-74 5.71504e-75 2.96709e-75 1.47248e-75 6.9916e-76 3.17926e-76 1.38589e-76 5.7972e-77 2.32935e-77 8.99937e-78 3.34639e-78 1.1988e-78 4.14129e-79 1.38083e-79 4.44785e-80 1.38529e-80 4.17516e-81 1.21871e-81 3.44798e-82 9.46212e-83 2.52051e-83 6.52181e-84 1.64029e-84 4.0126e-85 9.55337e-86 2.21499e-86 5.00409e-87 1.10219e-87 2.3681e-88 4.9657e-89 1.01675e-89 2.0338e-90 3.97615e-91 7.60108e-92 1.42145e-92 2.60142e-93 4.66108e-94 8.17956e-95 1.40638e-95 2.37007e-96 3.91614e-97 6.3466e-98 1.00914e-98 1.57479e-99 2.41159e-100 3.5521e-101 0 
0 1.98145e-143 2.43783e-142 2.94909e-141 3.52991e-140 4.18029e-139 4.89746e-138 5.67561e-137 6.50557e-136 7.37465e-135 8.26673e-134 9.16248e-133 1.00399e-131 1.08751e-130 1.16431e-129 1.23192e-128 1.28802e-127 1.33056e-126 1.35787e-125 1.3688e-124 1.36274e-123 1.33974e-122 1.30047e-121 1.24621e-120 1.17875e-119 1.10034e-118 1.01354e-117 9.21069e-117 8.25672e-116 7.29985e-115 6.36408e-114 5.47009e-113 4.6346e-112 3.86995e-111 3.18413e-110 2.58096e-109 2.06058e-108 1.62003e-107 1.25398e-106 9.55421e-106 7.16367e-105 5.28459e-104 3.83458e-103 2.73619e-102 1.91949e-101 1.3235e-100 8.96681e-100 5.96773e-99 3.90041e-98 2.50272e-97 1.57609e-96 9.73819e-96 5.90147e-95 3.50654e-94 2.04212e-93 1.16523e-92 6.5118e-92 3.56274e-91 1.90758e-90 9.99118e-90 5.11676e-89 2.56108e-88 1.25227e-87 5.97871e-87 2.78569e-86 1.26604e-85 5.60936e-85 2.42151e-84 1.01791e-83 4.16405e-83 1.65666e-82 6.40575e-82 2.40563e-81 8.76799e-81 3.09927e-80 1.06162e-79 3.52114e-79 1.1299e-78 3.50476e-78 1.04992e-77 3.03477e-77 8.45582e-77 2.26892e-76 5.85704e-76 1.45307e-75 3.4609e-75 7.90557e-75 1.73006e-74 3.62345e-74 7.25574e-74 1.3878e-73 2.53323e-73 4.40959e-73 7.31533e-73 1.15613e-72 1.74049e-72 2.49647e-72 3.41414e-72 4.45749e-72 5.56701e-72 6.66965e-72 7.69423e-72 8.58694e-72 9.32148e-72 9.90005e-72 1.03458e-71 1.06905e-71 1.0964e-71 1.11884e-71 1.13785e-71 1.15456e-71 1.17003e-71 1.1852e-71 1.20055e-71 1.21551e-71 1.22821e-71 1.23551e-71 1.23345e-71 1.21802e-71 1.18612e-71 1.13654e-71 1.0707e-71 9.93018e-72 9.10686e-72 8.32717e-72 7.68401e-72 7.255e-72 7.0867e-72 7.1856e-72 7.51852e-72 8.02188e-72 8.61675e-72 9.22539e-72 9.78505e-72 1.02561e-71 1.06237e-71 1.08929e-71 1.10805e-71 1.12059e-71 1.12835e-71 1.132e-71 1.13156e-71 1.12681e-71 1.1178e-71 1.10521e-71 1.09038e-71 1.07512e-71 1.06122e-71 1.05007e-71 1.04226e-71 1.0376e-71 1.03535e-71 1.03461e-71 1.03482e-71 1.03606e-71 1.03924e-71 1.0458e-71 1.05726e-71 1.07462e-71 1.09773e-71 1.12508e-71 1.15391e-71 1.18089e-71 1.20306e-71 1.21886e-71 1.22884e-71 1.23573e-71 1.24378e-71 1.25747e-71 1.27982e-71 1.31104e-71 1.34784e-71 1.38388e-71 1.41136e-71 1.42316e-71 1.41506e-71 1.38703e-71 1.34332e-71 1.2913e-71 1.23952e-71 1.19555e-71 1.16447e-71 1.1481e-71 1.14504e-71 1.1512e-71 1.1607e-71 1.16675e-71 1.16288e-71 1.14403e-71 1.10765e-71 1.05424e-71 9.87176e-72 9.11739e-72 8.33617e-72 7.57399e-72 6.85532e-72 6.18109e-72 5.53491e-72 4.89468e-72 4.24482e-72 3.58438e-72 2.92837e-72 2.3029e-72 1.7366e-72 1.25243e-72 8.62389e-73 5.66418e-73 3.54726e-73 2.11829e-73 1.20661e-73 6.55971e-74 3.40604e-74 1.69055e-74 8.02815e-75 3.65114e-75 1.59184e-75 6.65982e-76 2.67642e-76 1.03421e-76 3.84643e-77 1.37821e-77 4.76205e-78 1.58815e-78 5.11681e-79 1.594e-79 4.80537e-80 1.40302e-80 3.97042e-81 1.08987e-81 2.90397e-82 7.51608e-83 1.89089e-83 4.62699e-84 1.10194e-84 2.55567e-85 5.77554e-86 1.27251e-86 2.73491e-87 5.73674e-88 1.17501e-88 2.35116e-89 4.59818e-90 8.79322e-91 1.64496e-91 3.01154e-92 5.39787e-93 9.47597e-94 1.62988e-94 2.74774e-95 4.54189e-96 7.3635e-97 1.17128e-97 1.82853e-98 2.80123e-99 4.12757e-100 0 
0 2.32412e-142 2.85809e-141 3.45586e-140 4.13454e-139 4.89401e-138 5.73094e-137 6.63841e-136 7.60561e-135 8.61764e-134 9.65559e-133 1.06969e-131 1.17158e-130 1.26845e-129 1.35741e-128 1.43558e-127 1.50027e-126 1.54911e-125 1.58019e-124 1.59218e-123 1.58442e-122 1.55698e-121 1.51067e-120 1.44699e-119 1.36805e-118 1.27649e-117 1.17527e-116 1.06757e-115 9.56582e-115 8.45355e-114 7.36668e-113 6.32912e-112 5.3601e-111 4.47383e-110 3.67942e-109 2.98117e-108 2.37909e-107 1.86966e-106 1.4466e-105 1.10172e-104 8.25717e-104 6.08876e-103 4.41629e-102 3.15e-101 2.20889e-100 1.52243e-99 1.03105e-98 6.85928e-98 4.48136e-97 2.87437e-96 1.80944e-95 1.11757e-94 6.77004e-94 4.02112e-93 2.34093e-92 1.33523e-91 7.45912e-91 4.07956e-90 2.18352e-89 1.14324e-88 5.85281e-88 2.92849e-87 1.43143e-86 6.83177e-86 3.18211e-85 1.44573e-84 6.40346e-84 2.76344e-83 1.16128e-82 4.74912e-82 1.88886e-81 7.30146e-81 2.74123e-80 9.98835e-80 3.52967e-79 1.20873e-78 4.00801e-78 1.2858e-77 3.98738e-77 1.19421e-76 3.45105e-76 9.61358e-76 2.57903e-75 6.65618e-75 1.651e-74 3.93161e-74 8.97919e-74 1.96468e-73 4.11419e-73 8.23722e-73 1.57531e-72 2.87515e-72 5.00421e-72 8.30094e-72 1.31179e-71 1.97467e-71 2.8322e-71 3.8731e-71 5.05654e-71 6.31504e-71 7.56578e-71 8.72802e-71 9.74071e-71 1.0574e-70 1.12303e-70 1.17358e-70 1.21267e-70 1.24368e-70 1.26911e-70 1.29065e-70 1.3096e-70 1.32714e-70 1.34436e-70 1.36177e-70 1.37873e-70 1.39314e-70 1.40142e-70 1.39908e-70 1.38158e-70 1.34544e-70 1.28926e-70 1.21465e-70 1.12663e-70 1.03335e-70 9.45021e-71 8.72165e-71 8.23581e-71 8.0454e-71 8.15777e-71 8.5353e-71 9.10592e-71 9.78019e-71 1.047e-70 1.11043e-70 1.16382e-70 1.20548e-70 1.23599e-70 1.25725e-70 1.27144e-70 1.28021e-70 1.28432e-70 1.28378e-70 1.27837e-70 1.26815e-70 1.25387e-70 1.23708e-70 1.21981e-70 1.20411e-70 1.1915e-70 1.18269e-70 1.17744e-70 1.17491e-70 1.17409e-70 1.17432e-70 1.17572e-70 1.17931e-70 1.18671e-70 1.19968e-70 1.2193e-70 1.24545e-70 1.27639e-70 1.30901e-70 1.33954e-70 1.36464e-70 1.38254e-70 1.39385e-70 1.40167e-70 1.41081e-70 1.42632e-70 1.45164e-70 1.48698e-70 1.52863e-70 1.56941e-70 1.60049e-70 1.61384e-70 1.60467e-70 1.57294e-70 1.52348e-70 1.46462e-70 1.40602e-70 1.35625e-70 1.32107e-70 1.30253e-70 1.29903e-70 1.30598e-70 1.31669e-70 1.3235e-70 1.31907e-70 1.29767e-70 1.25642e-70 1.19588e-70 1.11988e-70 1.03437e-70 9.45814e-71 8.59398e-71 7.77897e-71 7.01421e-71 6.28112e-71 5.55471e-71 4.81734e-71 4.06793e-71 3.32355e-71 2.61379e-71 1.97116e-71 1.42169e-71 9.79007e-72 6.43067e-72 4.02765e-72 2.4054e-72 1.3703e-72 7.45044e-73 3.86901e-73 1.92059e-73 9.1218e-74 4.14913e-74 1.80923e-74 7.57052e-75 3.04293e-75 1.17605e-75 4.37473e-76 1.56781e-76 5.41826e-77 1.80738e-77 5.8244e-78 1.81485e-78 5.47243e-79 1.59816e-79 4.5238e-80 1.24209e-80 3.31044e-81 8.57044e-82 2.15675e-82 5.27904e-83 1.2576e-83 2.91755e-84 6.59535e-85 1.45359e-85 3.12508e-86 6.55726e-87 1.34351e-87 2.68921e-88 5.2611e-89 1.00644e-89 1.88341e-90 3.44931e-91 6.18472e-92 1.08612e-92 1.86883e-93 3.15173e-94 5.21161e-95 8.45245e-96 1.34501e-96 2.10054e-97 3.2192e-98 4.7452e-99 0 
0 2.6965e-141 3.31449e-140 4.00582e-139 4.79025e-138 5.66752e-137 6.63362e-136 7.68044e-135 8.79536e-134 9.96108e-133 1.11557e-131 1.2353e-130 1.35235e-129 1.46349e-128 1.56541e-127 1.6548e-126 1.72859e-125 1.78405e-124 1.81902e-123 1.83199e-122 1.82225e-121 1.78989e-120 1.73587e-119 1.66195e-118 1.57059e-117 1.46482e-116 1.34808e-115 1.22401e-114 1.09628e-113 9.68384e-113 8.43514e-112 7.24396e-111 6.13225e-110 5.11612e-109 4.20587e-108 3.40627e-107 2.71719e-106 2.13447e-105 1.6508e-104 1.25672e-103 9.41499e-103 6.93968e-102 5.03143e-101 3.58731e-100 2.51454e-99 1.7324e-98 1.17278e-97 7.79915e-97 5.09341e-96 3.26568e-95 2.05498e-94 1.26874e-93 7.68293e-93 4.56163e-92 2.65461e-91 1.5136e-90 8.45249e-90 4.6212e-89 2.47255e-88 1.29412e-87 6.62293e-87 3.31269e-86 1.61868e-85 7.7229e-85 3.596e-84 1.63325e-83 7.23173e-83 3.11991e-82 1.31068e-81 5.35849e-81 2.13059e-80 8.23352e-80 3.09028e-79 1.12571e-78 3.97695e-78 1.36154e-77 4.51358e-77 1.44763e-76 4.48815e-76 1.34388e-75 3.88269e-75 1.08136e-74 2.90036e-74 7.48402e-74 1.85599e-73 4.41894e-73 1.00904e-72 2.20746e-72 4.6219e-72 9.25241e-72 1.76922e-71 3.22869e-71 5.61893e-71 9.31972e-71 1.47266e-70 2.21668e-70 3.17913e-70 4.34733e-70 5.67551e-70 7.08792e-70 8.49167e-70 9.79614e-70 1.09328e-69 1.18681e-69 1.26047e-69 1.31721e-69 1.36106e-69 1.39584e-69 1.42435e-69 1.44851e-69 1.46976e-69 1.48945e-69 1.50878e-69 1.52832e-69 1.54736e-69 1.56352e-69 1.5728e-69 1.57017e-69 1.55056e-69 1.51003e-69 1.44704e-69 1.3634e-69 1.26472e-69 1.16016e-69 1.06115e-69 9.79494e-70 9.25056e-70 9.03743e-70 9.16376e-70 9.58735e-70 1.02274e-69 1.09836e-69 1.17571e-69 1.24684e-69 1.30672e-69 1.35343e-69 1.38763e-69 1.41146e-69 1.42736e-69 1.43716e-69 1.44173e-69 1.4411e-69 1.435e-69 1.42352e-69 1.40751e-69 1.3887e-69 1.36936e-69 1.3518e-69 1.33771e-69 1.32787e-69 1.32202e-69 1.31921e-69 1.31829e-69 1.31855e-69 1.32011e-69 1.32412e-69 1.33239e-69 1.34689e-69 1.36886e-69 1.39812e-69 1.43275e-69 1.46928e-69 1.50346e-69 1.53156e-69 1.55162e-69 1.56431e-69 1.57309e-69 1.58336e-69 1.60075e-69 1.62912e-69 1.66871e-69 1.71534e-69 1.76099e-69 1.79578e-69 1.81071e-69 1.80044e-69 1.76492e-69 1.70954e-69 1.64364e-69 1.57803e-69 1.5223e-69 1.4829e-69 1.46211e-69 1.45817e-69 1.46592e-69 1.47786e-69 1.48545e-69 1.48043e-69 1.4564e-69 1.41013e-69 1.34223e-69 1.257e-69 1.16111e-69 1.06179e-69 9.64845e-70 8.73398e-70 7.8757e-70 7.05282e-70 6.23732e-70 5.40947e-70 4.56808e-70 3.73232e-70 2.9354e-70 2.21382e-70 1.59681e-70 1.09968e-70 7.22391e-71 4.52487e-71 2.70262e-71 1.53977e-71 8.37279e-72 4.34849e-72 2.15887e-72 1.02549e-72 4.66516e-73 2.03454e-73 8.51465e-74 3.42297e-74 1.32315e-74 4.92284e-75 1.76457e-75 6.09946e-76 2.03503e-76 6.55941e-77 2.04432e-77 6.16579e-78 1.80108e-78 5.09943e-79 1.40049e-79 3.73358e-80 9.66852e-81 2.43375e-81 5.95872e-82 1.41992e-82 3.2951e-83 7.45107e-84 1.64269e-84 3.53273e-85 7.41498e-86 1.51974e-86 3.04296e-87 5.95514e-88 1.13959e-88 2.13333e-89 3.90836e-90 7.0103e-91 1.23154e-91 2.11981e-92 3.57632e-93 5.91588e-94 9.59827e-95 1.52791e-95 2.3871e-96 3.65977e-97 5.39663e-98 0 
0 3.09432e-140 3.80172e-139 4.59251e-138 5.48925e-137 6.49149e-136 7.5945e-135 8.78886e-134 1.006e-132 1.13881e-131 1.27479e-130 1.41096e-129 1.54394e-128 1.67007e-127 1.78555e-126 1.88666e-125 1.96989e-124 2.03217e-123 2.07107e-122 2.0849e-121 2.07288e-120 2.03516e-119 1.97286e-118 1.88801e-117 1.78344e-116 1.6626e-115 1.52943e-114 1.38806e-113 1.24267e-112 1.09722e-111 9.55325e-111 8.20065e-110 6.93915e-109 5.78685e-108 4.75525e-107 3.84958e-106 3.06954e-105 2.41025e-104 1.86332e-103 1.41792e-102 1.06183e-101 7.82344e-101 5.66989e-100 4.04089e-99 2.83135e-98 1.94989e-97 1.3195e-96 8.77141e-96 5.72616e-95 3.66996e-94 2.3085e-93 1.42473e-92 8.62428e-92 5.11865e-91 2.97767e-90 1.69718e-89 9.4743e-89 5.17801e-88 2.7695e-87 1.44903e-86 7.41321e-86 3.70672e-85 1.81061e-84 8.63581e-84 4.01978e-83 1.82514e-82 8.07887e-82 3.48431e-81 1.46333e-80 5.98078e-80 2.37734e-79 9.18444e-79 3.44623e-78 1.25504e-77 4.43266e-77 1.51717e-76 5.02823e-76 1.6123e-75 4.99751e-75 1.49605e-74 4.3214e-74 1.2033e-73 3.22674e-73 8.32459e-73 2.06406e-72 4.91348e-72 1.12178e-71 2.45371e-71 5.13673e-71 1.02816e-70 1.96578e-70 3.58696e-70 6.24179e-70 1.03519e-69 1.63563e-69 2.46181e-69 3.53049e-69 4.82761e-69 6.30233e-69 7.87061e-69 9.4293e-69 1.08778e-68 1.214e-68 1.31787e-68 1.39966e-68 1.46265e-68 1.51133e-68 1.54991e-68 1.58155e-68 1.60835e-68 1.63194e-68 1.65379e-68 1.67526e-68 1.69695e-68 1.71808e-68 1.73602e-68 1.74632e-68 1.7434e-68 1.72164e-68 1.67668e-68 1.60681e-68 1.51404e-68 1.40461e-68 1.28865e-68 1.17885e-68 1.08831e-68 1.02797e-68 1.00437e-68 1.01842e-68 1.06544e-68 1.13646e-68 1.22036e-68 1.30618e-68 1.3851e-68 1.45152e-68 1.50334e-68 1.54128e-68 1.5677e-68 1.58532e-68 1.59616e-68 1.6012e-68 1.60045e-68 1.59366e-68 1.58089e-68 1.56313e-68 1.54228e-68 1.52087e-68 1.50143e-68 1.48585e-68 1.47498e-68 1.46853e-68 1.46544e-68 1.46443e-68 1.46472e-68 1.46644e-68 1.47086e-68 1.48002e-68 1.49606e-68 1.52038e-68 1.55278e-68 1.59113e-68 1.63158e-68 1.66944e-68 1.70058e-68 1.72281e-68 1.73689e-68 1.74665e-68 1.75805e-68 1.77735e-68 1.8088e-68 1.85266e-68 1.90432e-68 1.95488e-68 1.9934e-68 2.00993e-68 1.99854e-68 1.9592e-68 1.89786e-68 1.82487e-68 1.75219e-68 1.69046e-68 1.6468e-68 1.62375e-68 1.61935e-68 1.62789e-68 1.64108e-68 1.64943e-68 1.6438e-68 1.61711e-68 1.56576e-68 1.49043e-68 1.39588e-68 1.28949e-68 1.17928e-68 1.0717e-68 9.70188e-69 8.74893e-69 7.8351e-69 6.92935e-69 6.00981e-69 5.0752e-69 4.14682e-69 3.26154e-69 2.45992e-69 1.77443e-69 1.22209e-69 8.02867e-70 5.02938e-70 3.00422e-70 1.71178e-70 9.30908e-71 4.83531e-71 2.40084e-71 1.14057e-71 5.18939e-72 2.26349e-72 9.4742e-73 3.80932e-73 1.47274e-73 5.48035e-74 1.96477e-74 6.79275e-75 2.26679e-75 7.30795e-76 2.27811e-76 6.87243e-77 2.00796e-77 5.68654e-78 1.56212e-78 4.16553e-79 1.07899e-79 2.71675e-80 6.65346e-81 1.58592e-81 3.68139e-82 8.32703e-83 1.83636e-83 3.95045e-84 8.29435e-85 1.70051e-85 3.40603e-86 6.66787e-87 1.27641e-87 2.39027e-88 4.3806e-89 7.86007e-90 1.38132e-90 2.37846e-91 4.01415e-92 6.64256e-93 1.07813e-93 1.71687e-94 2.68333e-95 4.1155e-96 6.07088e-97 0 
0 3.51159e-139 4.31238e-138 5.20695e-137 6.22076e-136 7.35312e-135 8.59853e-134 9.94617e-133 1.13794e-131 1.28757e-130 1.44065e-129 1.59381e-128 1.74323e-127 1.88477e-126 2.01418e-125 2.12727e-124 2.2201e-123 2.28927e-122 2.33204e-121 2.34656e-120 2.33198e-119 2.28853e-118 2.21749e-117 2.12118e-116 2.00281e-115 1.86629e-114 1.71605e-113 1.55675e-112 1.39309e-111 1.2295e-110 1.07004e-109 9.18147e-109 7.76578e-108 6.47348e-107 5.31724e-106 4.30273e-105 3.42943e-104 2.69173e-103 2.08006e-102 1.5822e-101 1.18438e-100 8.72282e-100 6.31915e-99 4.50182e-98 3.15306e-97 2.1706e-96 1.46828e-95 9.75662e-95 6.36687e-94 4.07905e-93 2.56486e-92 1.58235e-91 9.57485e-91 5.68074e-90 3.30346e-89 1.88219e-88 1.05034e-87 5.73841e-87 3.06816e-86 1.60475e-85 8.20707e-85 4.1023e-84 2.00318e-83 9.55116e-83 4.44444e-82 2.01732e-81 8.92679e-81 3.84884e-80 1.61594e-79 6.60261e-79 2.62376e-78 1.01336e-77 3.80136e-77 1.384e-76 4.88688e-76 1.67221e-75 5.54072e-75 1.77621e-74 5.5043e-74 1.6474e-73 4.75756e-73 1.32447e-72 3.55099e-72 9.15937e-72 2.27063e-71 5.4043e-71 1.23364e-70 2.69798e-70 5.64728e-70 1.1302e-69 2.16061e-69 3.94204e-69 6.85898e-69 1.13745e-68 1.79706e-68 2.70462e-68 3.8785e-68 5.30326e-68 6.9231e-68 8.64571e-68 1.03578e-67 1.1949e-67 1.33356e-67 1.44766e-67 1.53751e-67 1.60669e-67 1.66013e-67 1.70248e-67 1.7372e-67 1.76662e-67 1.79251e-67 1.81651e-67 1.84009e-67 1.86391e-67 1.88712e-67 1.9068e-67 1.91811e-67 1.91491e-67 1.89102e-67 1.84169e-67 1.76503e-67 1.66325e-67 1.54319e-67 1.41597e-67 1.29553e-67 1.19623e-67 1.13006e-67 1.10421e-67 1.11967e-67 1.1713e-67 1.24926e-67 1.34134e-67 1.43553e-67 1.52213e-67 1.59502e-67 1.65189e-67 1.69352e-67 1.72251e-67 1.74182e-67 1.75368e-67 1.75916e-67 1.75831e-67 1.75081e-67 1.73678e-67 1.71729e-67 1.69443e-67 1.67097e-67 1.64969e-67 1.63265e-67 1.62077e-67 1.61374e-67 1.61037e-67 1.60928e-67 1.60959e-67 1.61147e-67 1.6163e-67 1.62631e-67 1.64388e-67 1.6705e-67 1.70599e-67 1.748e-67 1.79231e-67 1.8338e-67 1.86793e-67 1.8923e-67 1.90775e-67 1.91848e-67 1.93101e-67 1.9522e-67 1.98668e-67 2.03476e-67 2.09136e-67 2.14675e-67 2.18895e-67 2.20705e-67 2.19456e-67 2.15145e-67 2.08424e-67 2.00427e-67 1.92464e-67 1.85699e-67 1.80913e-67 1.78385e-67 1.779e-67 1.78831e-67 1.80272e-67 1.81181e-67 1.80557e-67 1.77624e-67 1.71986e-67 1.6372e-67 1.53342e-67 1.41667e-67 1.2957e-67 1.17759e-67 1.06613e-67 9.61464e-68 8.61074e-68 7.61557e-68 6.60516e-68 5.57814e-68 4.55792e-68 3.58505e-68 2.70406e-68 1.95066e-68 1.34355e-68 8.82729e-69 5.53011e-69 3.30362e-69 1.88255e-69 1.02388e-69 5.31879e-70 2.6412e-70 1.25491e-70 5.71035e-71 2.49105e-71 1.04282e-71 4.19354e-72 1.62155e-72 6.03509e-73 2.16403e-73 7.48304e-74 2.49763e-74 8.05378e-75 2.51113e-75 7.57705e-76 2.21434e-76 6.27246e-77 1.72349e-77 4.59699e-78 1.19106e-78 2.99971e-79 7.34843e-80 1.75206e-80 4.0682e-81 9.20465e-82 2.0305e-82 4.36943e-83 9.17687e-84 1.88204e-84 3.77082e-85 7.38443e-86 1.41405e-86 2.6489e-87 4.85625e-88 8.71654e-89 1.53237e-89 2.63949e-90 4.45629e-91 7.37689e-92 1.19775e-92 1.90808e-93 2.98329e-94 4.57729e-95 6.75455e-96 0 