# vtk DataFile Version 3.0
Gray-Scott Simulation Output
ASCII
DATASET STRUCTURED_POINTS
DIMENSIONS 256 256 1
SPACING 1.0 1.0 1.0
ORIGIN 0 0 0
POINT_DATA 65536
SCALARS u double
LOOKUP_TABLE default
0 0 0 0 0 0 0 0 0 0 0 0 0 0 0 0 0 0 0 0 0 0 0 0 0 0 0 0 0 0 0 0 0 0 0 0 0 0 0 0 0 0 0 0 0 0 0 0 0 0 0 0 0 0 0 0 0 0 0 0 0 0 0 0 0 0 0 0 0 0 0 0 0 0 0 0 0 0 0 0 0 0 0 0 0 0 0 0 0 0 0 0 0 0 0 0 0 0 0 0 0 0 0 0 0 0 0 0 0 0 0 0 0 0 0 0 0 0 0 0 0 0 0 0 0 0 0 0 0 0 0 0 0 0 0 0 0 0 0 0 0 0 0 0 0 0 0 0 0 0 0 0 0 0 0 0 0 0 0 0 0 0 0 0 0 0 0 0 0 0 0 0 0 0 0 0 0 0 0 0 0 0 0 0 0 0 0 0 0 0 0 0 0 0 0 0 0 0 0 0 0 0 0 0 0 0 0 0 0 0 0 0 0 0 0 0 0 0 0 0 0 0 0 0 0 0 0 0 0 0 0 0 0 0 0 0 0 0 0 0 0 0 0 0 0 0 0 0 0 0 0 0 0 0 0 0 
0 5.76488e-95 2.98293e-94 1.47355e-93 7.20077e-93 3.48531e-92 1.67087e-91 7.93316e-91 3.73009e-90 1.7367e-89 8.00615e-89 3.65411e-88 1.65104e-87 7.3844e-87 3.26899e-86 1.43223e-85 6.20976e-85 2.66413e-84 1.13087e-83 4.74902e-83 1.97281e-82 8.10616e-82 3.29417e-81 1.32383e-80 5.26051e-80 2.06674e-79 8.02705e-79 3.08171e-78 1.16934e-77 4.38485e-77 1.62473e-76 5.94793e-76 2.15108e-75 7.68421e-75 2.71105e-74 9.44528e-74 3.24918e-73 1.10346e-72 3.69916e-72 1.22392e-71 3.99617e-71 1.2874e-70 4.09165e-70 1.28272e-69 3.96599e-69 1.20917e-68 3.63471e-68 1.07704e-67 3.14558e-67 9.0533e-67 2.56729e-66 7.17186e-66 1.97334e-65 5.34698e-65 1.42651e-64 3.74645e-64 9.68424e-64 2.46337e-63 6.16499e-63 1.51771e-62 3.67465e-62 8.74838e-62 2.04758e-61 4.71049e-61 1.06492e-60 2.36543e-60 5.16125e-60 1.10602e-59 2.32727e-59 4.80751e-59 9.74753e-59 1.93947e-58 3.78619e-58 7.25045e-58 1.36173e-57 2.50782e-57 4.52801e-57 8.01393e-57 1.39008e-56 2.36279e-56 3.93494e-56 6.41981e-56 1.02595e-55 1.60588e-55 2.46175e-55 3.69572e-55 5.43333e-55 7.82256e-55 1.10297e-54 1.52315e-54 2.06036e-54 2.73047e-54 3.54589e-54 4.5137e-54 5.63399e-54 6.89862e-54 8.29081e-54 9.78544e-54 1.13505e-53 1.29492e-53 1.45429e-53 1.60938e-53 1.75682e-53 1.89385e-53 2.01849e-53 2.12954e-53 2.22658e-53 2.30979e-53 2.37978e-53 2.43738e-53 2.48342e-53 2.51858e-53 2.54329e-53 2.5577e-53 2.56171e-53 2.55513e-53 2.53784e-53 2.50996e-53 2.47211e-53 2.4255e-53 2.37205e-53 2.31434e-53 2.25553e-53 2.1991e-53 2.14855e-53 2.10709e-53 2.07732e-53 2.06095e-53 2.05863e-53 2.06997e-53 2.09355e-53 2.12714e-53 2.16799e-53 2.21309e-53 2.25947e-53 2.30445e-53 2.34583e-53 2.38194e-53 2.41174e-53 2.43474e-53 2.45097e-53 2.46084e-53 2.46509e-53 2.46465e-53 2.46057e-53 2.45395e-53 2.44587e-53 2.43734e-53 2.42928e-53 2.42249e-53 2.41764e-53 2.4153e-53 2.41591e-53 2.4198e-53 2.42717e-53 2.43813e-53 2.45264e-53 2.47055e-53 2.49156e-53 2.51529e-53 2.54128e-53 2.56906e-53 2.59815e-53 2.6281e-53 2.65853e-53 2.68903e-53 2.71918e-53 2.74847e-53 2.7762e-53 2.80152e-53 2.8234e-53 2.84072e-53 2.85239e-53 2.85751e-53 2.85547e-53 2.84614e-53 2.82984e-53 2.80737e-53 2.77983e-53 2.74845e-53 2.71441e-53 2.67854e-53 2.64124e-53 2.60233e-53 2.56109e-53 2.51635e-53 2.46662e-53 2.41039e-53 2.34625e-53 2.27312e-53 2.19036e-53 2.09783e-53 1.99587e-53 1.88523e-53 1.76702e-53 1.64258e-53 1.51343e-53 1.38123e-53 1.24772e-53 1.1147e-53 9.84036e-54 8.57583e-54 7.37139e-54 6.24353e-54 5.20637e-54 4.27075e-54 3.44357e-54 2.72744e-54 2.12072e-54 1.61798e-54 1.21071e-54 8.8823e-55 6.38723e-55 4.50097e-55 3.10769e-55 2.10214e-55 1.39299e-55 9.0426e-56 5.75042e-56 3.58251e-56 2.18669e-56 1.30779e-56 7.66461e-57 4.40249e-57 2.47871e-57 1.36816e-57 7.40468e-58 3.93013e-58 2.04605e-58 1.045e-58 5.23709e-59 2.57584e-59 1.24362e-59 5.89504e-60 2.74409e-60 1.25461e-60 5.63517e-61 2.48702e-61 1.07872e-61 4.59926e-62 1.92795e-62 7.94734e-63 3.22215e-63 1.28515e-63 5.04344e-64 1.94781e-64 7.40445e-65 2.77106e-65 1.02113e-65 3.70577e-66 1.32467e-66 4.66444e-67 1.61671e-67 5.47019e-68 1.66281e-68 0 
0 2.9782e-94 1.54097e-93 7.61215e-93 3.71972e-92 1.80038e-91 8.63096e-91 4.09787e-90 1.92676e-89 8.97076e-89 4.1355e-88 1.88749e-87 8.52832e-87 3.81438e-86 1.6886e-85 7.39834e-85 3.20777e-84 1.37624e-83 5.84199e-83 2.45338e-82 1.01921e-81 4.18801e-81 1.70199e-80 6.84011e-80 2.71819e-79 1.06798e-78 4.14818e-78 1.59265e-77 6.04366e-77 2.26645e-76 8.39855e-76 3.07486e-75 1.11212e-74 3.97315e-74 1.40189e-73 4.88468e-73 1.68051e-72 5.70784e-72 1.91368e-71 6.33243e-71 2.06784e-70 6.66259e-70 2.11781e-69 6.64022e-69 2.05336e-68 6.26131e-68 1.88242e-67 5.57889e-67 1.62963e-66 4.69104e-66 1.3305e-65 3.71748e-65 1.02305e-64 2.7726e-64 7.39839e-64 1.94343e-63 5.02461e-63 1.27837e-62 3.19999e-62 7.87948e-62 1.90817e-61 4.54386e-61 1.06373e-60 2.44768e-60 5.53485e-60 1.22969e-59 2.68373e-59 5.75234e-59 1.21068e-58 2.50149e-58 5.07307e-58 1.00962e-57 1.97138e-57 3.77596e-57 7.09325e-57 1.3066e-56 2.35961e-56 4.177e-56 7.24673e-56 1.23199e-55 2.05208e-55 3.34849e-55 5.35206e-55 8.37851e-55 1.28456e-54 1.92868e-54 2.83578e-54 4.08313e-54 5.75758e-54 7.95142e-54 1.07563e-53 1.4255e-53 1.85122e-53 2.35646e-53 2.94124e-53 3.60128e-53 4.32776e-53 5.10754e-53 5.92386e-53 6.7575e-53 7.5882e-53 8.39632e-53 9.16425e-53 9.87764e-53 1.05261e-52 1.11036e-52 1.16079e-52 1.20401e-52 1.24034e-52 1.27021e-52 1.29408e-52 1.3123e-52 1.3251e-52 1.33254e-52 1.3346e-52 1.33115e-52 1.32215e-52 1.30766e-52 1.28799e-52 1.26377e-52 1.23599e-52 1.20601e-52 1.17545e-52 1.14612e-52 1.11986e-52 1.09832e-52 1.08286e-52 1.07436e-52 1.07317e-52 1.07908e-52 1.09134e-52 1.10881e-52 1.13005e-52 1.15349e-52 1.17759e-52 1.20097e-52 1.22246e-52 1.24122e-52 1.2567e-52 1.26864e-52 1.27706e-52 1.28218e-52 1.28438e-52 1.28414e-52 1.28202e-52 1.27858e-52 1.27438e-52 1.26995e-52 1.26576e-52 1.26223e-52 1.25972e-52 1.2585e-52 1.25881e-52 1.26082e-52 1.26465e-52 1.27033e-52 1.27786e-52 1.28715e-52 1.29805e-52 1.31036e-52 1.32385e-52 1.33826e-52 1.35336e-52 1.36891e-52 1.3847e-52 1.40053e-52 1.41619e-52 1.4314e-52 1.4458e-52 1.45896e-52 1.47033e-52 1.47933e-52 1.4854e-52 1.48806e-52 1.48701e-52 1.48217e-52 1.47371e-52 1.46204e-52 1.44773e-52 1.43144e-52 1.41376e-52 1.39514e-52 1.37578e-52 1.35559e-52 1.33419e-52 1.31097e-52 1.28517e-52 1.25599e-52 1.22271e-52 1.18474e-52 1.14178e-52 1.09372e-52 1.04076e-52 9.83261e-53 9.21806e-53 8.57086e-53 7.89889e-53 7.21068e-53 6.51526e-53 5.82207e-53 5.14079e-53 4.48114e-53 3.85254e-53 3.26366e-53 2.72193e-53 2.23308e-53 1.80076e-53 1.42639e-53 1.10916e-53 8.46249e-54 6.33241e-54 4.64572e-54 3.34063e-54 2.35397e-54 1.62519e-54 1.09924e-54 7.28347e-55 4.72753e-55 3.00598e-55 1.87247e-55 1.14274e-55 6.83331e-56 4.00415e-56 2.29955e-56 1.29446e-56 7.14362e-57 3.86546e-57 2.05123e-57 1.06767e-57 5.45186e-58 2.73165e-58 1.34326e-58 6.48391e-59 3.07284e-59 1.43007e-59 6.53691e-60 2.93546e-60 1.29525e-60 5.61682e-61 2.39428e-61 1.00344e-61 4.13547e-62 1.67633e-62 6.68465e-63 2.62279e-63 1.01274e-63 3.8491e-64 1.44022e-64 5.30621e-65 1.92532e-65 6.88102e-66 2.42253e-66 8.39513e-67 2.84008e-67 8.63204e-68 0 
0 1.46866e-93 7.59895e-93 3.75367e-92 1.83422e-91 8.87764e-91 4.25584e-90 2.0206e-89 9.50049e-89 4.4233e-88 2.03913e-87 9.30689e-87 4.2052e-86 1.88084e-85 8.3265e-85 3.64819e-84 1.58182e-83 6.78668e-83 2.88098e-82 1.20993e-81 5.0266e-81 2.06557e-80 8.39478e-80 3.37396e-79 1.34086e-78 5.26854e-78 2.04652e-77 7.85799e-77 2.98212e-76 1.11842e-75 4.1448e-75 1.51762e-74 5.48953e-74 1.96138e-73 6.92133e-73 2.4119e-72 8.29884e-72 2.81905e-71 9.4527e-71 3.12836e-70 1.0217e-69 3.29242e-69 1.04671e-68 3.28239e-68 1.01518e-67 3.09612e-67 9.30991e-67 2.75966e-66 8.06266e-66 2.32135e-65 6.58523e-65 1.84032e-64 5.06564e-64 1.37314e-63 3.66488e-63 9.62914e-63 2.49011e-62 6.33685e-62 1.5866e-61 3.90769e-61 9.46554e-61 2.25454e-60 5.27927e-60 1.21508e-59 2.7483e-59 6.10751e-59 1.33327e-58 2.85847e-58 6.01765e-58 1.24368e-57 2.52284e-57 5.02208e-57 9.80854e-57 1.87917e-56 3.53092e-56 6.50559e-56 1.17512e-55 2.08067e-55 3.61055e-55 6.13941e-55 1.02282e-54 1.66929e-54 2.66857e-54 4.17825e-54 6.40686e-54 9.62073e-54 1.41472e-53 2.0372e-53 2.87287e-53 3.96779e-53 5.36767e-53 7.11381e-53 9.23838e-53 1.17596e-52 1.46774e-52 1.79702e-52 2.15937e-52 2.54822e-52 2.95518e-52 3.37063e-52 3.78447e-52 4.18688e-52 4.56909e-52 4.92396e-52 5.24636e-52 5.53328e-52 5.78366e-52 5.99807e-52 6.17819e-52 6.32622e-52 6.4444e-52 6.53454e-52 6.59778e-52 6.63452e-52 6.64455e-52 6.62735e-52 6.58258e-52 6.51059e-52 6.4129e-52 6.29265e-52 6.15474e-52 6.00588e-52 5.85417e-52 5.70859e-52 5.5782e-52 5.4713e-52 5.39457e-52 5.35243e-52 5.34659e-52 5.37598e-52 5.43695e-52 5.52375e-52 5.62925e-52 5.74567e-52 5.86536e-52 5.9814e-52 6.08809e-52 6.18117e-52 6.25795e-52 6.31719e-52 6.35894e-52 6.38431e-52 6.39518e-52 6.39397e-52 6.38341e-52 6.36632e-52 6.34547e-52 6.32348e-52 6.30269e-52 6.28517e-52 6.27267e-52 6.26661e-52 6.26813e-52 6.27809e-52 6.29703e-52 6.32519e-52 6.36249e-52 6.40851e-52 6.46253e-52 6.52357e-52 6.59044e-52 6.6619e-52 6.73674e-52 6.81382e-52 6.89213e-52 6.97066e-52 7.04833e-52 7.12379e-52 7.19527e-52 7.26057e-52 7.31702e-52 7.36174e-52 7.39191e-52 7.40516e-52 7.39998e-52 7.37597e-52 7.33401e-52 7.27611e-52 7.20513e-52 7.12429e-52 7.03659e-52 6.94423e-52 6.84822e-52 6.74812e-52 6.64205e-52 6.52698e-52 6.39912e-52 6.25449e-52 6.08946e-52 5.90123e-52 5.68812e-52 5.44971e-52 5.18683e-52 4.90138e-52 4.59614e-52 4.27453e-52 3.94044e-52 3.59809e-52 3.25196e-52 2.90673e-52 2.56725e-52 2.23836e-52 1.92479e-52 1.6309e-52 1.36042e-52 1.11625e-52 9.00256e-53 7.13162e-53 5.54589e-53 4.2315e-53 3.16644e-53 2.32301e-53 1.67037e-53 1.17696e-53 8.12521e-54 5.49518e-54 3.64067e-54 2.36277e-54 1.50215e-54 9.35565e-55 5.70869e-55 3.41304e-55 1.99958e-55 1.14811e-55 6.46162e-56 3.56515e-56 1.9287e-56 1.02325e-56 5.32477e-57 2.71837e-57 1.36171e-57 6.69447e-58 3.23063e-58 1.53068e-58 7.12188e-59 3.25465e-59 1.46117e-59 6.44576e-60 2.79452e-60 1.19093e-60 4.99e-61 2.05604e-61 8.33231e-62 3.32189e-62 1.30308e-62 5.03048e-63 1.91151e-63 7.15078e-64 2.63401e-64 9.55533e-65 3.41437e-65 1.20183e-65 4.16407e-66 1.40845e-66 4.28018e-67 0 
0 7.16413e-93 3.70668e-92 1.83096e-91 8.94677e-91 4.33019e-90 2.07583e-89 9.85559e-89 4.6339e-88 2.15748e-87 9.94599e-87 4.53953e-86 2.05115e-85 9.17424e-85 4.06152e-84 1.77957e-83 7.71623e-83 3.31071e-82 1.40546e-81 5.90278e-81 2.4524e-80 1.00781e-79 4.09611e-79 1.64637e-78 6.54331e-78 2.5712e-77 9.98837e-77 3.83551e-76 1.4557e-75 5.46001e-75 2.02363e-74 7.41031e-74 2.68073e-73 9.57918e-73 3.38069e-72 1.17823e-71 4.05455e-71 1.37748e-70 4.61955e-70 1.52906e-69 4.99455e-69 1.60974e-68 5.11842e-68 1.60536e-67 4.96595e-67 1.5148e-66 4.55578e-66 1.35069e-65 3.94697e-65 1.13662e-64 3.22504e-64 9.01469e-64 2.48191e-63 6.72922e-63 1.79642e-62 4.72104e-62 1.22116e-61 3.10837e-61 7.78456e-61 1.91776e-60 4.64655e-60 1.10702e-59 2.59289e-59 5.96937e-59 1.35053e-58 3.00205e-58 6.55522e-58 1.40579e-57 2.96026e-57 6.11964e-57 1.24172e-56 2.47247e-56 4.83019e-56 9.25632e-56 1.73968e-55 3.20608e-55 5.79262e-55 1.02588e-54 1.78059e-54 3.02837e-54 5.04626e-54 8.23736e-54 1.31708e-53 2.06253e-53 3.16314e-53 4.75051e-53 6.98644e-53 1.00616e-52 1.41901e-52 1.95996e-52 2.65158e-52 3.51425e-52 4.56383e-52 5.80926e-52 7.25039e-52 8.87649e-52 1.06656e-51 1.2585e-51 1.45932e-51 1.66426e-51 1.86832e-51 2.06665e-51 2.25494e-51 2.42966e-51 2.58829e-51 2.72936e-51 2.85239e-51 2.95766e-51 3.04603e-51 3.1186e-51 3.1765e-51 3.22063e-51 3.25156e-51 3.26949e-51 3.27433e-51 3.26582e-51 3.24378e-51 3.20838e-51 3.16037e-51 3.10128e-51 3.03352e-51 2.96037e-51 2.88582e-51 2.81429e-51 2.75023e-51 2.69771e-51 2.66003e-51 2.63934e-51 2.63651e-51 2.65098e-51 2.68098e-51 2.72367e-51 2.77554e-51 2.83276e-51 2.89158e-51 2.9486e-51 3.00101e-51 3.04673e-51 3.08443e-51 3.11351e-51 3.13399e-51 3.14643e-51 3.15175e-51 3.15113e-51 3.14593e-51 3.13752e-51 3.12728e-51 3.11647e-51 3.10626e-51 3.09765e-51 3.09151e-51 3.08852e-51 3.08926e-51 3.09414e-51 3.10342e-51 3.11722e-51 3.13551e-51 3.15809e-51 3.18459e-51 3.21453e-51 3.24734e-51 3.2824e-51 3.31912e-51 3.35695e-51 3.39538e-51 3.43393e-51 3.47206e-51 3.50911e-51 3.54422e-51 3.5763e-51 3.60405e-51 3.62603e-51 3.64087e-51 3.6474e-51 3.64487e-51 3.63309e-51 3.61249e-51 3.58406e-51 3.5492e-51 3.50951e-51 3.46645e-51 3.42111e-51 3.37399e-51 3.32488e-51 3.27285e-51 3.21641e-51 3.1537e-51 3.08276e-51 3.00179e-51 2.90943e-51 2.80482e-51 2.68776e-51 2.55864e-51 2.41839e-51 2.26834e-51 2.11017e-51 1.94578e-51 1.77722e-51 1.60671e-51 1.43653e-51 1.26909e-51 1.10678e-51 9.51949e-52 8.06762e-52 6.73084e-52 5.52363e-52 4.45535e-52 3.52975e-52 2.74509e-52 2.09458e-52 1.5674e-52 1.14989e-52 8.26803e-53 5.82543e-53 4.02129e-53 2.71939e-53 1.80144e-53 1.16897e-53 7.4307e-54 4.62722e-54 2.82297e-54 1.68744e-54 9.88417e-55 5.67408e-55 3.1927e-55 1.76115e-55 9.52541e-56 5.05237e-56 2.62852e-56 1.34156e-56 6.7186e-57 3.30218e-57 1.59316e-57 7.54651e-58 3.5103e-58 1.60377e-58 7.19829e-59 3.17461e-59 1.37598e-59 5.86251e-60 2.45577e-60 1.01161e-60 4.09864e-61 1.63363e-61 6.40677e-62 2.47272e-62 9.39382e-63 3.51335e-63 1.29387e-63 4.69272e-64 1.67648e-64 5.89983e-65 2.04375e-65 6.91149e-66 2.10002e-66 0 
0 3.46131e-92 1.79083e-91 8.84586e-91 4.32237e-90 2.09198e-89 1.00286e-88 4.76134e-88 2.23869e-87 1.04231e-86 4.80507e-86 2.19315e-85 9.90972e-85 4.43243e-84 1.96233e-83 8.59823e-83 3.72833e-82 1.59973e-81 6.79143e-81 2.85246e-80 1.18516e-79 4.87064e-79 1.97973e-78 7.95774e-78 3.16294e-77 1.24297e-76 4.82897e-76 1.85447e-75 7.03898e-75 2.64041e-74 9.78709e-74 3.5843e-73 1.29679e-72 4.63443e-72 1.63579e-71 5.70174e-71 1.96236e-70 6.66781e-70 2.23646e-69 7.40374e-69 2.41876e-68 7.79693e-68 2.47958e-67 7.77845e-67 2.40659e-66 7.34236e-66 2.20866e-65 6.54951e-65 1.91428e-64 5.51378e-64 1.56482e-63 4.375e-63 1.20479e-62 3.26733e-62 8.7245e-62 2.29338e-61 5.93362e-61 1.51074e-60 3.78446e-60 9.32565e-60 2.26011e-59 5.38607e-59 1.26188e-58 2.90592e-58 6.57624e-58 1.46223e-57 3.19378e-57 6.85108e-57 1.44308e-56 2.98406e-56 6.05654e-56 1.20629e-55 2.35724e-55 4.5185e-55 8.49452e-55 1.56587e-54 2.82987e-54 5.01294e-54 8.70286e-54 1.48049e-53 2.46751e-53 4.02871e-53 6.44277e-53 1.00911e-52 1.54783e-52 2.32493e-52 3.41964e-52 4.92535e-52 6.94697e-52 9.59597e-52 1.29828e-51 1.72072e-51 2.23465e-51 2.84442e-51 3.54992e-51 4.34583e-51 5.22133e-51 6.16036e-51 7.14252e-51 8.14447e-51 9.1417e-51 1.01105e-50 1.10297e-50 1.18822e-50 1.26556e-50 1.3343e-50 1.39419e-50 1.44541e-50 1.48836e-50 1.52362e-50 1.55172e-50 1.57312e-50 1.58811e-50 1.59678e-50 1.59909e-50 1.59491e-50 1.58416e-50 1.56691e-50 1.54353e-50 1.51475e-50 1.48176e-50 1.44614e-50 1.40984e-50 1.375e-50 1.34381e-50 1.31824e-50 1.2999e-50 1.28984e-50 1.28847e-50 1.29554e-50 1.31017e-50 1.33097e-50 1.35624e-50 1.38412e-50 1.41277e-50 1.44053e-50 1.46604e-50 1.4883e-50 1.50664e-50 1.52078e-50 1.53074e-50 1.53678e-50 1.53936e-50 1.53905e-50 1.53651e-50 1.53241e-50 1.52742e-50 1.52216e-50 1.51719e-50 1.513e-50 1.51e-50 1.50855e-50 1.5089e-50 1.51127e-50 1.51578e-50 1.52248e-50 1.53137e-50 1.54234e-50 1.55523e-50 1.56978e-50 1.58573e-50 1.60278e-50 1.62064e-50 1.63903e-50 1.65772e-50 1.67648e-50 1.69503e-50 1.71306e-50 1.73015e-50 1.74577e-50 1.75928e-50 1.76999e-50 1.77722e-50 1.78041e-50 1.77919e-50 1.77346e-50 1.76344e-50 1.74961e-50 1.73264e-50 1.71333e-50 1.69237e-50 1.67032e-50 1.64741e-50 1.62353e-50 1.59824e-50 1.57081e-50 1.54033e-50 1.50585e-50 1.46649e-50 1.42158e-50 1.3707e-50 1.31375e-50 1.2509e-50 1.18261e-50 1.10952e-50 1.03244e-50 9.52273e-51 8.70032e-51 7.86783e-51 7.03651e-51 6.21802e-51 5.42416e-51 4.66645e-51 3.95557e-51 3.30075e-51 2.70917e-51 2.18548e-51 1.73162e-51 1.34677e-51 1.02767e-51 7.69028e-52 5.64173e-52 4.05642e-52 2.85787e-52 1.97262e-52 1.33384e-52 8.83487e-53 5.73223e-53 3.6432e-53 2.26829e-53 1.38358e-53 8.2688e-54 4.84242e-54 2.77922e-54 1.56346e-54 8.62229e-55 4.66235e-55 2.47234e-55 1.28592e-55 6.56146e-56 3.28515e-56 1.61421e-56 7.78584e-57 3.68701e-57 1.71457e-57 7.83137e-58 3.51405e-58 1.54936e-58 6.71366e-59 2.85967e-59 1.19759e-59 4.93195e-60 1.99772e-60 7.96051e-61 3.12117e-61 1.20433e-61 4.57415e-62 1.71036e-62 6.29732e-63 2.28346e-63 8.15585e-64 2.86958e-64 9.9384e-65 3.36026e-65 1.02084e-65 0 
0 1.65631e-91 8.56935e-91 4.2328e-90 2.06826e-89 1.00101e-88 4.79863e-88 2.27828e-87 1.07121e-86 4.98747e-86 2.29927e-85 1.04945e-84 4.74205e-84 2.12108e-83 9.39073e-83 4.11482e-82 1.78432e-81 7.65634e-81 3.25055e-80 1.36533e-79 5.67306e-79 2.3316e-78 9.47769e-78 3.80993e-77 1.51443e-76 5.95191e-76 2.31253e-75 8.88162e-75 3.3715e-74 1.26482e-73 4.68876e-73 1.71735e-72 6.21406e-72 2.22104e-71 7.84051e-71 2.73328e-70 9.40843e-70 3.19732e-69 1.07258e-68 3.55133e-68 1.1604e-67 3.74121e-67 1.18999e-66 3.7337e-66 1.1554e-65 3.52576e-65 1.0608e-64 3.14634e-64 9.19808e-64 2.64995e-63 7.52232e-63 2.10362e-62 5.79437e-62 1.57178e-61 4.19807e-61 1.10382e-60 2.85663e-60 7.27511e-60 1.82294e-59 4.4933e-59 1.08928e-58 2.59658e-58 6.08517e-58 1.40172e-57 3.17309e-57 7.05742e-57 1.54192e-56 3.30861e-56 6.97113e-56 1.44194e-55 2.92746e-55 5.83234e-55 1.14004e-54 2.1859e-54 4.11051e-54 7.57932e-54 1.37011e-53 2.42768e-53 4.21568e-53 7.1732e-53 1.19582e-52 1.95282e-52 3.12361e-52 4.89329e-52 7.50691e-52 1.12775e-51 1.65898e-51 2.38973e-51 3.37091e-51 4.65664e-51 6.30051e-51 8.35083e-51 1.08451e-50 1.38042e-50 1.72274e-50 2.10885e-50 2.53348e-50 2.9888e-50 3.46488e-50 3.95036e-50 4.43335e-50 4.90233e-50 5.34704e-50 5.7592e-50 6.1329e-50 6.46477e-50 6.75372e-50 7.00058e-50 7.20748e-50 7.37713e-50 7.51226e-50 7.6151e-50 7.68704e-50 7.72858e-50 7.73948e-50 7.71916e-50 7.66718e-50 7.58389e-50 7.47102e-50 7.33214e-50 7.17291e-50 7.00103e-50 6.82586e-50 6.65777e-50 6.50725e-50 6.38389e-50 6.29541e-50 6.24693e-50 6.24041e-50 6.27461e-50 6.34527e-50 6.44575e-50 6.56777e-50 6.70234e-50 6.8406e-50 6.97457e-50 7.09765e-50 7.20497e-50 7.29341e-50 7.36158e-50 7.40956e-50 7.43864e-50 7.45101e-50 7.44948e-50 7.43718e-50 7.41739e-50 7.39329e-50 7.3679e-50 7.34391e-50 7.32369e-50 7.30923e-50 7.30219e-50 7.30388e-50 7.31525e-50 7.33694e-50 7.36923e-50 7.41203e-50 7.46488e-50 7.52693e-50 7.59705e-50 7.6739e-50 7.75605e-50 7.84209e-50 7.93075e-50 8.02084e-50 8.11123e-50 8.20067e-50 8.28763e-50 8.37007e-50 8.44543e-50 8.51064e-50 8.56236e-50 8.59731e-50 8.61274e-50 8.6069e-50 8.57931e-50 8.53098e-50 8.46426e-50 8.38245e-50 8.2893e-50 8.18829e-50 8.08198e-50 7.97156e-50 7.85653e-50 7.73472e-50 7.60263e-50 7.45585e-50 7.28978e-50 7.10019e-50 6.88379e-50 6.63858e-50 6.36401e-50 6.06092e-50 5.73143e-50 5.37862e-50 5.00633e-50 4.61897e-50 4.22132e-50 3.81854e-50 3.41607e-50 3.01956e-50 2.63474e-50 2.26724e-50 1.92227e-50 1.60436e-50 1.31703e-50 1.06258e-50 8.41999e-51 6.54913e-51 4.99758e-51 3.73985e-51 2.74358e-51 1.97256e-51 1.38964e-51 9.59107e-52 6.48457e-52 4.29458e-52 2.786e-52 1.77039e-52 1.10206e-52 6.72092e-53 4.01584e-53 2.35127e-53 1.34916e-53 7.58792e-54 4.18361e-54 2.26164e-54 1.19898e-54 6.2345e-55 3.18033e-55 1.59187e-55 7.81976e-56 3.77065e-56 1.78511e-56 8.29896e-57 3.78951e-57 1.69993e-57 7.49297e-58 3.24594e-58 1.38222e-58 5.78695e-59 2.38256e-59 9.64817e-60 3.84358e-60 1.50661e-60 5.81191e-61 2.20685e-61 8.2498e-62 3.03673e-62 1.10088e-62 3.93113e-63 1.38283e-63 4.78819e-64 1.6186e-64 4.91641e-65 0 
0 7.8493e-91 4.061e-90 2.00589e-89 9.80126e-89 4.74367e-88 2.27401e-87 1.07966e-86 5.07639e-86 2.36356e-85 1.08964e-84 4.97354e-84 2.24739e-83 1.00527e-82 4.4508e-82 1.95032e-81 8.45755e-81 3.62923e-80 1.54089e-79 6.47257e-79 2.68957e-78 1.10547e-77 4.49394e-77 1.80665e-76 7.18197e-76 2.82285e-75 1.09688e-74 4.21313e-74 1.59949e-73 6.00114e-73 2.22491e-72 8.15014e-72 2.94943e-71 1.05433e-70 3.7224e-70 1.29785e-69 4.46812e-69 1.51866e-68 5.09539e-68 1.68737e-67 5.51445e-67 1.77823e-66 5.65721e-66 1.77534e-65 5.49492e-65 1.67715e-64 5.04716e-64 1.49732e-63 4.3783e-63 1.26167e-62 3.58233e-62 1.00204e-61 2.7608e-61 7.4909e-61 2.00127e-60 5.26343e-60 1.36253e-59 3.47098e-59 8.69974e-59 2.14499e-58 5.20145e-58 1.24027e-57 2.90748e-57 6.69942e-57 1.51701e-56 3.37509e-56 7.37624e-56 1.58325e-55 3.33689e-55 6.90428e-55 1.40215e-54 2.79433e-54 5.46364e-54 1.04791e-53 1.97112e-53 3.63554e-53 6.57375e-53 1.16511e-52 2.02374e-52 3.44435e-52 5.74329e-52 9.38115e-52 1.50086e-51 2.35163e-51 3.60832e-51 5.42158e-51 7.97655e-51 1.14914e-50 1.62113e-50 2.23963e-50 3.03042e-50 4.01671e-50 5.21647e-50 6.63968e-50 8.28587e-50 1.01423e-49 1.21835e-49 1.43715e-49 1.66585e-49 1.89897e-49 2.13079e-49 2.35576e-49 2.56897e-49 2.76644e-49 2.94535e-49 3.10411e-49 3.24222e-49 3.36011e-49 3.45884e-49 3.53972e-49 3.60409e-49 3.65304e-49 3.68724e-49 3.70695e-49 3.71204e-49 3.70224e-49 3.67733e-49 3.63748e-49 3.58349e-49 3.51708e-49 3.44094e-49 3.35874e-49 3.27498e-49 3.1946e-49 3.12263e-49 3.06364e-49 3.02135e-49 2.9982e-49 2.99512e-49 3.01151e-49 3.04535e-49 3.09344e-49 3.15182e-49 3.21619e-49 3.28231e-49 3.34637e-49 3.40521e-49 3.45649e-49 3.49875e-49 3.5313e-49 3.55421e-49 3.56807e-49 3.57396e-49 3.5732e-49 3.5673e-49 3.55782e-49 3.5463e-49 3.53415e-49 3.52268e-49 3.51301e-49 3.5061e-49 3.50272e-49 3.50351e-49 3.50893e-49 3.51927e-49 3.53468e-49 3.5551e-49 3.58032e-49 3.60994e-49 3.64342e-49 3.68011e-49 3.71933e-49 3.76041e-49 3.80275e-49 3.84578e-49 3.88896e-49 3.93169e-49 3.97324e-49 4.01265e-49 4.04868e-49 4.07988e-49 4.10462e-49 4.12135e-49 4.12876e-49 4.12599e-49 4.11282e-49 4.08973e-49 4.05784e-49 4.01875e-49 3.97423e-49 3.92597e-49 3.8752e-49 3.82247e-49 3.76756e-49 3.70943e-49 3.6464e-49 3.57637e-49 3.49712e-49 3.40663e-49 3.30333e-49 3.18623e-49 3.05507e-49 2.91024e-49 2.75272e-49 2.58397e-49 2.40582e-49 2.22033e-49 2.02981e-49 1.8367e-49 1.64361e-49 1.45326e-49 1.2684e-49 1.09175e-49 9.25846e-50 7.72877e-50 6.34564e-50 5.12038e-50 4.05785e-50 3.15645e-50 2.40876e-50 1.80258e-50 1.32236e-50 9.50703e-51 6.6971e-51 4.6218e-51 3.12446e-51 2.06898e-51 1.34199e-51 8.52634e-52 5.30664e-52 3.23559e-52 1.93289e-52 1.13144e-52 6.49066e-53 3.64956e-53 2.01167e-53 1.08721e-53 5.76215e-54 2.99538e-54 1.52756e-54 7.64382e-55 3.75379e-55 1.80953e-55 8.5642e-56 3.98033e-56 1.81698e-56 8.14838e-57 3.59061e-57 1.55499e-57 6.61972e-58 2.77069e-58 1.14041e-58 4.61678e-59 1.8387e-59 7.20538e-60 2.77882e-60 1.05487e-60 3.94239e-61 1.45082e-61 5.25824e-62 1.87721e-62 6.60177e-63 2.28541e-63 7.72392e-64 2.34568e-64 0 
0 3.68362e-90 1.90578e-89 9.41336e-89 4.59957e-88 2.22612e-87 1.06716e-86 5.0667e-86 2.38232e-85 1.10922e-84 5.11379e-84 2.33419e-83 1.05478e-82 4.71824e-82 2.08907e-81 9.15457e-81 3.97006e-80 1.70368e-79 7.23389e-79 3.0388e-78 1.26281e-77 5.19079e-77 2.11031e-76 8.48454e-76 3.37315e-75 1.32593e-74 5.15266e-74 1.97936e-73 7.51533e-73 2.82001e-72 1.04564e-71 3.83081e-71 1.3865e-70 4.95701e-70 1.75038e-69 6.10379e-69 2.10168e-68 7.14457e-68 2.39754e-67 7.94105e-67 2.59567e-66 8.37176e-66 2.6639e-65 8.36156e-65 2.58856e-64 7.90249e-64 2.37868e-63 7.05837e-63 2.06442e-62 5.9504e-62 1.68995e-61 4.72832e-61 1.30308e-60 3.53659e-60 9.45095e-60 2.48634e-59 6.43816e-59 1.64057e-58 4.11318e-58 1.01444e-57 2.4607e-57 5.86929e-57 1.37633e-56 3.17233e-56 7.18569e-56 1.5992e-55 3.49616e-55 7.50665e-55 1.58262e-54 3.27561e-54 6.65435e-54 1.32656e-53 2.59458e-53 4.97784e-53 9.36617e-53 1.72802e-52 3.12548e-52 5.54103e-52 9.62711e-52 1.63893e-51 2.73352e-51 4.466e-51 7.14657e-51 1.11999e-50 1.71882e-50 2.583e-50 3.80082e-50 5.47635e-50 7.72644e-50 1.06751e-49 1.44453e-49 1.91473e-49 2.48666e-49 3.16505e-49 3.94959e-49 4.83417e-49 5.80651e-49 6.8485e-49 7.93723e-49 9.04654e-49 1.01491e-48 1.12185e-48 1.22313e-48 1.31688e-48 1.40174e-48 1.47699e-48 1.54239e-48 1.59817e-48 1.64483e-48 1.68303e-48 1.71341e-48 1.73649e-48 1.75259e-48 1.76185e-48 1.7642e-48 1.75952e-48 1.74769e-48 1.72879e-48 1.70321e-48 1.67174e-48 1.63566e-48 1.59671e-48 1.55702e-48 1.51894e-48 1.48483e-48 1.45689e-48 1.43686e-48 1.4259e-48 1.42446e-48 1.43225e-48 1.4483e-48 1.47111e-48 1.49878e-48 1.5293e-48 1.56063e-48 1.59098e-48 1.61885e-48 1.64313e-48 1.66313e-48 1.67854e-48 1.68937e-48 1.69592e-48 1.69869e-48 1.69832e-48 1.69552e-48 1.69102e-48 1.68555e-48 1.6798e-48 1.67436e-48 1.66978e-48 1.6665e-48 1.6649e-48 1.66527e-48 1.66782e-48 1.67271e-48 1.67999e-48 1.68965e-48 1.70158e-48 1.71559e-48 1.73142e-48 1.74878e-48 1.76733e-48 1.78677e-48 1.8068e-48 1.82717e-48 1.8476e-48 1.86783e-48 1.88751e-48 1.90617e-48 1.92325e-48 1.93803e-48 1.94976e-48 1.9577e-48 1.96122e-48 1.95992e-48 1.95369e-48 1.94276e-48 1.92766e-48 1.90915e-48 1.88807e-48 1.86522e-48 1.84119e-48 1.81625e-48 1.79028e-48 1.7628e-48 1.733e-48 1.69989e-48 1.66243e-48 1.61964e-48 1.57078e-48 1.51538e-48 1.45331e-48 1.38474e-48 1.31012e-48 1.23016e-48 1.14568e-48 1.05768e-48 9.67232e-49 8.75493e-49 7.83699e-49 6.93143e-49 6.05144e-49 5.21002e-49 4.41932e-49 3.68991e-49 3.03008e-49 2.44535e-49 1.93812e-49 1.50771e-49 1.15061e-49 8.61062e-50 6.3166e-50 4.54107e-50 3.19867e-50 2.20725e-50 1.49198e-50 9.87832e-51 6.40627e-51 4.06949e-51 2.53228e-51 1.54366e-51 9.2195e-52 5.39546e-52 3.0944e-52 1.73946e-52 9.58545e-53 5.17901e-53 2.74407e-53 1.42605e-53 7.27034e-54 3.63693e-54 1.78552e-54 8.60454e-55 4.07113e-55 1.89153e-55 8.632e-56 3.86989e-56 1.70476e-56 7.3806e-57 3.14103e-57 1.31429e-57 5.40797e-58 2.18871e-58 8.71434e-59 3.41395e-59 1.31625e-59 4.9953e-60 1.86639e-60 6.86662e-61 2.48804e-61 8.88014e-62 3.1222e-62 1.08059e-62 3.65121e-63 1.10863e-63 0 
0 1.71173e-89 8.85583e-89 4.37422e-88 2.13734e-87 1.03444e-86 4.95896e-86 2.35446e-85 1.10707e-84 5.15466e-84 2.37649e-83 1.08478e-82 4.90209e-82 2.19288e-81 9.70969e-81 4.25512e-80 1.84541e-79 7.91972e-79 3.36294e-78 1.41279e-77 5.87144e-77 2.41365e-76 9.81346e-76 3.94587e-75 1.56888e-74 6.16761e-74 2.39704e-73 9.20907e-73 3.49695e-72 1.31234e-71 4.86669e-71 1.7832e-70 6.45492e-70 2.3081e-69 8.1514e-69 2.84296e-68 9.79062e-68 3.32885e-67 1.11728e-66 3.70132e-66 1.21007e-65 3.90361e-65 1.24239e-64 3.9005e-64 1.20778e-63 3.68802e-63 1.11037e-62 3.29565e-62 9.64147e-62 2.77972e-61 7.89666e-61 2.21e-60 6.09222e-60 1.65392e-59 4.42109e-59 1.16344e-58 3.01351e-58 7.68136e-58 1.92644e-57 4.75272e-57 1.15322e-56 2.75156e-56 6.4544e-56 1.48818e-55 3.37202e-55 7.50704e-55 1.64174e-54 3.52618e-54 7.43669e-54 1.53972e-53 3.12895e-53 6.23969e-53 1.2208e-52 2.34293e-52 4.40979e-52 8.13837e-52 1.47244e-51 2.61119e-51 4.53803e-51 7.72771e-51 1.28921e-50 2.10681e-50 3.37213e-50 5.28582e-50 8.11362e-50 1.2195e-49 1.79475e-49 2.58627e-49 3.6493e-49 5.04245e-49 6.82369e-49 9.04515e-49 1.17471e-48 1.49515e-48 1.86568e-48 2.28337e-48 2.74237e-48 3.2341e-48 3.74768e-48 4.27074e-48 4.79035e-48 5.29404e-48 5.77077e-48 6.21168e-48 6.61052e-48 6.96382e-48 7.27063e-48 7.53205e-48 7.75054e-48 7.92924e-48 8.07121e-48 8.17895e-48 8.25406e-48 8.29712e-48 8.30787e-48 8.28568e-48 8.23002e-48 8.14124e-48 8.0211e-48 7.87335e-48 7.70397e-48 7.52113e-48 7.33479e-48 7.15599e-48 6.99589e-48 6.86472e-48 6.77072e-48 6.71933e-48 6.71264e-48 6.7493e-48 6.82476e-48 6.93192e-48 7.06194e-48 7.20523e-48 7.35235e-48 7.49481e-48 7.62559e-48 7.73952e-48 7.83333e-48 7.90555e-48 7.95629e-48 7.98695e-48 7.99987e-48 7.99806e-48 7.98484e-48 7.96371e-48 7.93803e-48 7.91101e-48 7.88549e-48 7.86397e-48 7.84857e-48 7.84103e-48 7.84273e-48 7.85467e-48 7.87755e-48 7.91165e-48 7.9569e-48 8.01278e-48 8.07842e-48 8.15263e-48 8.23397e-48 8.32095e-48 8.41207e-48 8.50599e-48 8.60146e-48 8.69729e-48 8.79219e-48 8.8845e-48 8.97209e-48 9.05224e-48 9.12167e-48 9.17679e-48 9.21411e-48 9.23069e-48 9.22463e-48 9.19544e-48 9.14418e-48 9.07334e-48 8.98648e-48 8.88761e-48 8.78045e-48 8.66777e-48 8.55085e-48 8.42917e-48 8.30043e-48 8.16088e-48 8.00584e-48 7.83038e-48 7.62996e-48 7.40102e-48 7.14137e-48 6.85032e-48 6.52868e-48 6.17855e-48 5.8031e-48 5.40628e-48 4.99262e-48 4.56717e-48 4.13535e-48 3.70297e-48 3.27611e-48 2.86102e-48 2.46388e-48 2.09045e-48 1.74579e-48 1.43386e-48 1.15733e-48 9.17369e-49 7.13695e-49 5.44682e-49 4.07618e-49 2.99015e-49 2.14955e-49 1.51399e-49 1.04463e-49 7.06023e-50 4.67384e-50 3.03056e-50 1.92475e-50 1.19745e-50 7.29793e-51 4.35764e-51 2.54955e-51 1.46183e-51 8.21515e-52 4.52576e-52 2.44455e-52 1.29484e-52 6.72706e-53 3.42854e-53 1.71456e-53 8.41482e-54 4.05387e-54 1.91742e-54 8.90588e-55 4.0629e-55 1.82089e-55 8.01881e-56 3.47057e-56 1.47654e-56 6.1763e-57 2.54061e-57 1.02792e-57 4.09143e-58 1.6024e-58 6.17627e-59 2.34328e-59 8.75273e-60 3.21932e-60 1.16617e-60 4.16111e-61 1.46265e-61 5.06093e-62 1.70964e-62 5.19004e-63 0 