# vtk DataFile Version 3.0
Gray-Scott Simulation Output
ASCII
DATASET STRUCTURED_POINTS
DIMENSIONS 256 256 1
SPACING 1.0 1.0 1.0
ORIGIN 0 0 0
POINT_DATA 65536
SCALARS u double
LOOKUP_TABLE default
0 0 0 0 0 0 0 0 0 0 0 0 0 0 0 0 0 0 0 0 0 0 0 0 0 0 0 0 0 0 0 0 0 0 0 0 0 0 0 0 0 0 0 0 0 0 0 0 0 0 0 0 0 0 0 0 0 0 0 0 0 0 0 0 0 0 0 0 0 0 0 0 0 0 0 0 0 0 0 0 0 0 0 0 0 0 0 0 0 0 0 0 0 0 0 0 0 0 0 0 0 0 0 0 0 0 0 0 0 0 0 0 0 0 0 0 0 0 0 0 0 0 0 0 0 0 0 0 0 0 0 0 0 0 0 0 0 0 0 0 0 0 0 0 0 0 0 0 0 0 0 0 0 0 0 0 0 0 0 0 0 0 0 0 0 0 0 0 0 0 0 0 0 0 0 0 0 0 0 0 0 0 0 0 0 0 0 0 0 0 0 0 0 0 0 0 0 0 0 0 0 0 0 0 0 0 0 0 0 0 0 0 0 0 0 0 0 0 0 0 0 0 0 0 0 0 0 0 0 0 0 0 0 0 0 0 0 0 0 0 0 0 0 0 0 0 0 0 0 0 0 0 0 0 0 0 
0 5.50546e-101 3.18241e-100 1.76905e-99 9.73067e-99 5.30034e-98 2.8589e-97 1.52684e-96 8.07317e-96 4.22587e-95 2.18963e-94 1.12296e-93 5.69979e-93 2.86294e-92 1.42292e-91 6.99722e-91 3.40408e-90 1.63817e-89 7.79755e-89 3.67073e-88 1.70881e-87 7.86563e-87 3.57952e-86 1.61034e-85 7.1608e-85 3.14705e-84 1.36677e-83 5.86513e-83 2.48656e-82 1.04137e-81 4.30763e-81 1.75971e-80 7.09831e-80 2.82696e-79 1.11141e-78 4.31276e-78 1.65159e-77 6.24089e-77 2.32662e-76 8.556e-76 3.10322e-75 1.1099e-74 3.9139e-74 1.36057e-73 4.66163e-73 1.57395e-72 5.236e-72 1.71587e-71 5.53821e-71 1.76023e-70 5.50808e-70 1.6966e-69 5.14303e-69 1.53402e-68 4.50118e-68 1.29901e-67 3.68637e-67 1.02846e-66 2.82023e-66 7.59962e-66 2.01192e-65 5.23164e-65 1.3359e-64 3.34899e-64 8.24052e-64 1.9897e-63 4.71312e-63 1.09499e-62 2.49447e-62 5.57068e-62 1.21924e-61 2.61465e-61 5.49251e-61 1.12993e-60 2.27587e-60 4.48696e-60 8.6569e-60 1.63409e-59 3.01711e-59 5.44774e-59 9.61743e-59 1.65972e-58 2.7994e-58 4.61404e-58 7.43055e-58 1.16906e-57 1.79674e-57 2.69744e-57 3.95572e-57 5.66661e-57 7.93014e-57 1.08433e-56 1.44895e-56 1.8927e-56 2.41773e-56 3.02158e-56 3.69663e-56 4.43017e-56 5.20504e-56 6.00094e-56 6.79614e-56 7.56942e-56 8.30192e-56 8.97861e-56 9.58918e-56 1.01283e-55 1.0595e-55 1.09922e-55 1.13249e-55 1.1599e-55 1.182e-55 1.19919e-55 1.21168e-55 1.21944e-55 1.22223e-55 1.21971e-55 1.21154e-55 1.19751e-55 1.17769e-55 1.15256e-55 1.12307e-55 1.09066e-55 1.05717e-55 1.02473e-55 9.95537e-56 9.71613e-56 9.54603e-56 9.45574e-56 9.44911e-56 9.52289e-56 9.66746e-56 9.86823e-56 1.01075e-55 1.03668e-55 1.06281e-55 1.08763e-55 1.10993e-55 1.12887e-55 1.144e-55 1.15519e-55 1.16255e-55 1.16644e-55 1.16731e-55 1.16575e-55 1.16234e-55 1.15772e-55 1.15246e-55 1.14711e-55 1.14214e-55 1.13796e-55 1.13489e-55 1.13322e-55 1.13315e-55 1.13485e-55 1.13843e-55 1.14396e-55 1.15143e-55 1.16076e-55 1.17179e-55 1.18426e-55 1.19789e-55 1.21235e-55 1.22737e-55 1.24271e-55 1.2582e-55 1.27371e-55 1.28915e-55 1.30436e-55 1.31907e-55 1.33285e-55 1.34512e-55 1.35514e-55 1.36217e-55 1.36551e-55 1.36471e-55 1.3596e-55 1.35039e-55 1.33765e-55 1.32219e-55 1.30496e-55 1.28686e-55 1.26855e-55 1.25034e-55 1.23214e-55 1.21343e-55 1.19337e-55 1.17093e-55 1.14505e-55 1.1148e-55 1.07951e-55 1.03885e-55 9.92836e-56 9.4181e-56 8.8636e-56 8.27233e-56 7.65262e-56 7.01312e-56 6.36247e-56 5.7093e-56 5.06235e-56 4.43051e-56 3.82276e-56 3.24788e-56 2.71402e-56 2.22808e-56 1.79519e-56 1.41825e-56 1.09778e-56 8.31953e-57 6.16974e-57 4.4753e-57 3.17405e-57 2.20054e-57 1.49105e-57 9.87302e-58 6.38829e-58 4.0392e-58 2.49575e-58 1.50709e-58 8.89522e-59 5.13234e-59 2.89526e-59 1.59717e-59 8.61767e-60 4.54881e-60 2.34947e-60 1.18769e-60 5.87767e-61 2.84824e-61 1.35183e-61 6.28567e-62 2.86399e-62 1.27906e-62 5.60037e-63 2.40468e-63 1.0128e-63 4.18518e-64 1.69723e-64 6.75629e-65 2.64069e-65 1.01362e-65 3.82187e-66 1.41587e-66 5.15486e-67 1.8448e-67 6.49113e-68 2.24605e-68 7.64437e-69 2.55962e-69 8.43355e-70 2.73483e-70 8.72978e-71 2.74208e-71 8.42626e-72 2.35924e-72 0 
0 3.17779e-100 1.83676e-99 1.02095e-98 5.61526e-98 3.05842e-97 1.64953e-96 8.8089e-96 4.6574e-95 2.43774e-94 1.26302e-93 6.47708e-93 3.28737e-92 1.65112e-91 8.20587e-91 4.03503e-90 1.96291e-89 9.44585e-89 4.49597e-88 2.11642e-87 9.85207e-87 4.53477e-86 2.06365e-85 9.28364e-85 4.12813e-84 1.81422e-83 7.87906e-83 3.38107e-82 1.43342e-81 6.00318e-81 2.48323e-80 1.01443e-79 4.09205e-79 1.62972e-78 6.40732e-78 2.48639e-77 9.52201e-77 3.59823e-76 1.34148e-75 4.93343e-75 1.78942e-74 6.40038e-74 2.25713e-73 7.84682e-73 2.6887e-72 9.07874e-72 3.02042e-71 9.89896e-71 3.1953e-70 1.01566e-69 3.17851e-69 9.79144e-69 2.96847e-68 8.85508e-68 2.59859e-67 7.50027e-67 2.12871e-66 5.93965e-66 1.62898e-65 4.39018e-65 1.16242e-64 3.0231e-64 7.72062e-64 1.93579e-63 4.76393e-63 1.15045e-62 2.72557e-62 6.33324e-62 1.443e-61 3.22306e-61 7.0554e-61 1.51327e-60 3.1794e-60 6.5418e-60 1.31784e-59 2.5986e-59 5.01439e-59 9.4667e-59 1.74816e-58 3.15697e-58 5.5741e-58 9.62076e-58 1.62292e-57 2.67526e-57 4.30879e-57 6.77977e-57 1.0421e-56 1.56463e-56 2.29466e-56 3.28733e-56 4.60069e-56 6.29098e-56 8.40663e-56 1.09814e-55 1.40276e-55 1.75308e-55 2.14468e-55 2.57015e-55 3.01953e-55 3.48102e-55 3.942e-55 4.39015e-55 4.81455e-55 5.20647e-55 5.55996e-55 5.87193e-55 6.14193e-55 6.37158e-55 6.56382e-55 6.72213e-55 6.84971e-55 6.94894e-55 7.02099e-55 7.06569e-55 7.08172e-55 7.0671e-55 7.01982e-55 6.93869e-55 6.82413e-55 6.67888e-55 6.50843e-55 6.32108e-55 6.12753e-55 5.94004e-55 5.77131e-55 5.63306e-55 5.53479e-55 5.48267e-55 5.47892e-55 5.52166e-55 5.60532e-55 5.72146e-55 5.85987e-55 6.00976e-55 6.16088e-55 6.30434e-55 6.4332e-55 6.54269e-55 6.63012e-55 6.69473e-55 6.73728e-55 6.75969e-55 6.76473e-55 6.75566e-55 6.73599e-55 6.70926e-55 6.67888e-55 6.64797e-55 6.61927e-55 6.59512e-55 6.57743e-55 6.56776e-55 6.56734e-55 6.57713e-55 6.5978e-55 6.6297e-55 6.67282e-55 6.72667e-55 6.79028e-55 6.86226e-55 6.94092e-55 7.02444e-55 7.11115e-55 7.19969e-55 7.28909e-55 7.37867e-55 7.46783e-55 7.55567e-55 7.64065e-55 7.7203e-55 7.79119e-55 7.84914e-55 7.88976e-55 7.90913e-55 7.90452e-55 7.87502e-55 7.82184e-55 7.74821e-55 7.65891e-55 7.55938e-55 7.45478e-55 7.34899e-55 7.24383e-55 7.13871e-55 7.03067e-55 6.91484e-55 6.78525e-55 6.63577e-55 6.46103e-55 6.25715e-55 6.02219e-55 5.75626e-55 5.46129e-55 5.14065e-55 4.79865e-55 4.44007e-55 4.06988e-55 3.69308e-55 3.31464e-55 2.93963e-55 2.57322e-55 2.22062e-55 1.88697e-55 1.57701e-55 1.29479e-55 1.04332e-55 8.24311e-56 6.38076e-56 4.83581e-56 3.58625e-56 2.60131e-56 1.8449e-56 1.279e-56 8.66578e-57 5.73769e-57 3.71224e-57 2.34697e-57 1.45e-57 8.75503e-58 5.16682e-58 2.98076e-58 1.68128e-58 9.27349e-59 5.00288e-59 2.64036e-59 1.36354e-59 6.89186e-60 3.41011e-60 1.65223e-60 7.84053e-61 3.64506e-61 1.66056e-61 7.41487e-62 3.24608e-62 1.39358e-62 5.86848e-63 2.42466e-63 9.83129e-64 3.91301e-64 1.52917e-64 5.86879e-65 2.21253e-65 8.19552e-66 2.98339e-66 1.06755e-66 3.75579e-67 1.29941e-67 4.42198e-68 1.48047e-68 4.87739e-69 1.58147e-69 5.04766e-70 1.58535e-70 4.87125e-71 1.36378e-71 0 
0 1.76372e-99 1.01935e-98 5.66545e-98 3.11578e-97 1.69691e-96 9.15143e-96 4.88673e-95 2.5835e-94 1.35214e-93 7.00517e-93 3.59219e-92 1.82307e-91 9.15604e-91 4.55021e-90 2.23734e-89 1.08834e-88 5.23706e-88 2.4926e-87 1.17332e-86 5.46171e-86 2.51388e-85 1.14397e-84 5.14621e-84 2.28831e-83 1.00565e-82 4.36744e-82 1.87416e-81 7.9456e-81 3.32763e-80 1.37649e-79 5.62323e-79 2.26836e-78 9.03429e-78 3.55197e-77 1.3784e-76 5.279e-76 1.99494e-75 7.43784e-75 2.73548e-74 9.92251e-74 3.54929e-73 1.25176e-72 4.35202e-72 1.49133e-71 5.03608e-71 1.67561e-70 5.49206e-70 1.77296e-69 5.63617e-69 1.76403e-68 5.43473e-68 1.64784e-67 4.91621e-67 1.44289e-66 4.16514e-66 1.1823e-65 3.29942e-65 9.05017e-65 2.43944e-64 6.46007e-64 1.68035e-63 4.29211e-63 1.07634e-62 2.6493e-62 6.39897e-62 1.51627e-61 3.52391e-61 8.03051e-61 1.79401e-60 3.92788e-60 8.42624e-60 1.77069e-59 3.64396e-59 7.34208e-59 1.44801e-58 2.79466e-58 5.27696e-58 9.7463e-58 1.76035e-57 3.10866e-57 5.3663e-57 9.05368e-57 1.49263e-56 2.40435e-56 3.78364e-56 5.81632e-56 8.73359e-56 1.28096e-55 1.83524e-55 2.5686e-55 3.51246e-55 4.69383e-55 6.13152e-55 7.83239e-55 9.7883e-55 1.19744e-54 1.43493e-54 1.68572e-54 1.94321e-54 2.20036e-54 2.45028e-54 2.68687e-54 2.90528e-54 3.10218e-54 3.27587e-54 3.42612e-54 3.55385e-54 3.66071e-54 3.74866e-54 3.81951e-54 3.8746e-54 3.91457e-54 3.93935e-54 3.9482e-54 3.94003e-54 3.91372e-54 3.86859e-54 3.80488e-54 3.72411e-54 3.62933e-54 3.52515e-54 3.41752e-54 3.31327e-54 3.21945e-54 3.14259e-54 3.08797e-54 3.05903e-54 3.057e-54 3.08082e-54 3.1274e-54 3.19204e-54 3.26905e-54 3.35244e-54 3.43649e-54 3.51628e-54 3.58793e-54 3.6488e-54 3.6974e-54 3.7333e-54 3.75694e-54 3.76938e-54 3.77217e-54 3.76712e-54 3.75618e-54 3.74132e-54 3.72444e-54 3.70726e-54 3.69132e-54 3.6779e-54 3.66807e-54 3.66269e-54 3.66245e-54 3.66788e-54 3.67934e-54 3.69705e-54 3.72098e-54 3.75087e-54 3.78619e-54 3.82616e-54 3.86983e-54 3.91621e-54 3.96436e-54 4.01353e-54 4.06318e-54 4.11294e-54 4.16248e-54 4.21129e-54 4.25852e-54 4.30279e-54 4.3422e-54 4.37443e-54 4.39703e-54 4.40782e-54 4.40527e-54 4.38889e-54 4.35934e-54 4.31842e-54 4.26878e-54 4.21346e-54 4.15533e-54 4.09654e-54 4.03811e-54 3.97971e-54 3.91969e-54 3.85534e-54 3.78335e-54 3.70031e-54 3.60321e-54 3.4899e-54 3.3593e-54 3.21145e-54 3.04741e-54 2.86904e-54 2.67872e-54 2.4791e-54 2.27293e-54 2.06296e-54 1.85199e-54 1.64282e-54 1.43835e-54 1.24149e-54 1.05513e-54 8.81937e-55 7.24197e-55 5.83602e-55 4.61128e-55 3.56964e-55 2.70541e-55 2.00636e-55 1.45531e-55 1.0321e-55 7.15484e-56 4.84741e-56 3.20927e-56 2.07618e-56 1.31248e-56 8.10782e-57 4.89485e-57 2.88833e-57 1.66605e-57 9.39589e-58 5.18171e-58 2.79499e-58 1.47486e-58 7.61522e-59 3.84835e-59 1.90384e-59 9.22261e-60 4.37575e-60 2.03392e-60 9.26412e-61 4.13595e-61 1.81031e-61 7.77047e-62 3.27164e-62 1.35149e-62 5.47898e-63 2.18035e-63 8.51922e-64 3.26905e-64 1.23223e-64 4.56365e-65 1.66104e-65 5.94281e-66 2.09047e-66 7.23153e-67 2.4606e-67 8.237e-68 2.71332e-68 8.79678e-69 2.80738e-69 8.81634e-70 2.70869e-70 7.58276e-71 0 
0 9.68583e-99 5.5975e-98 3.11079e-97 1.71067e-96 9.31595e-96 5.02371e-95 2.68239e-94 1.41802e-93 7.42109e-93 3.84448e-92 1.9713e-91 1.00039e-90 5.02404e-90 2.49664e-89 1.22754e-88 5.97105e-88 2.87313e-87 1.36743e-86 6.43657e-86 2.99609e-85 1.37899e-84 6.2751e-84 2.82285e-83 1.25519e-82 5.51617e-82 2.39562e-81 1.02801e-80 4.35832e-80 1.82529e-79 7.55052e-79 3.08459e-78 1.24433e-77 4.95596e-77 1.94858e-76 7.56208e-76 2.89624e-75 1.09455e-74 4.08107e-74 1.50102e-73 5.44505e-73 1.94784e-72 6.87013e-72 2.38874e-71 8.18629e-71 2.76469e-70 9.19959e-70 3.01561e-69 9.73612e-69 3.09542e-68 9.68928e-68 2.9855e-67 9.05339e-67 2.70137e-66 7.92951e-66 2.28932e-65 6.49937e-65 1.81404e-64 4.97662e-64 1.34165e-63 3.55353e-63 9.24476e-63 2.36181e-62 5.92382e-62 1.45835e-61 3.52307e-61 8.3497e-61 1.94089e-60 4.42389e-60 9.88484e-60 2.16465e-59 4.6446e-59 9.76206e-59 2.00936e-58 4.04936e-58 7.98771e-58 1.54191e-57 2.91203e-57 5.37934e-57 9.71774e-57 1.71637e-56 2.96335e-56 5.00034e-56 8.245e-56 1.32829e-55 2.09055e-55 3.21402e-55 4.82655e-55 7.07976e-55 1.0144e-54 1.41984e-54 1.94166e-54 2.59479e-54 3.38961e-54 4.32987e-54 5.41103e-54 6.61931e-54 7.93173e-54 9.31741e-54 1.07398e-53 1.21599e-53 1.35397e-53 1.48455e-53 1.60504e-53 1.71361e-53 1.80935e-53 1.89211e-53 1.96243e-53 2.02123e-53 2.0696e-53 2.10854e-53 2.13881e-53 2.16076e-53 2.17435e-53 2.17919e-53 2.17467e-53 2.16017e-53 2.13532e-53 2.10025e-53 2.05578e-53 2.00361e-53 1.94626e-53 1.88701e-53 1.82962e-53 1.77798e-53 1.73568e-53 1.70563e-53 1.68973e-53 1.68863e-53 1.70178e-53 1.72745e-53 1.76307e-53 1.80549e-53 1.85141e-53 1.8977e-53 1.94162e-53 1.98106e-53 2.01456e-53 2.0413e-53 2.06105e-53 2.07405e-53 2.08089e-53 2.08241e-53 2.07963e-53 2.0736e-53 2.06543e-53 2.05614e-53 2.04669e-53 2.03792e-53 2.03054e-53 2.02513e-53 2.02217e-53 2.02204e-53 2.02502e-53 2.03131e-53 2.04104e-53 2.05419e-53 2.07061e-53 2.09002e-53 2.11199e-53 2.136e-53 2.16149e-53 2.18796e-53 2.21499e-53 2.24229e-53 2.26965e-53 2.29689e-53 2.32374e-53 2.34973e-53 2.37409e-53 2.39578e-53 2.41353e-53 2.42598e-53 2.43192e-53 2.43053e-53 2.42153e-53 2.40527e-53 2.38276e-53 2.35545e-53 2.32501e-53 2.29303e-53 2.26069e-53 2.22854e-53 2.19642e-53 2.16342e-53 2.12804e-53 2.08845e-53 2.04278e-53 1.98937e-53 1.92704e-53 1.85518e-53 1.7738e-53 1.6835e-53 1.58527e-53 1.48043e-53 1.37042e-53 1.25674e-53 1.14092e-53 1.02449e-53 9.08983e-54 7.96014e-54 6.87201e-54 5.84146e-54 4.88337e-54 4.01045e-54 3.23219e-54 2.55407e-54 1.97724e-54 1.49858e-54 1.11137e-54 8.0612e-55 5.7168e-55 3.96286e-55 2.68466e-55 1.77725e-55 1.14966e-55 7.26685e-56 4.48855e-56 2.70947e-56 1.59856e-56 9.2195e-57 5.19861e-57 2.86649e-57 1.54591e-57 8.15602e-58 4.21048e-58 2.12738e-58 1.05225e-58 5.09637e-59 2.41756e-59 1.1235e-59 5.11638e-60 2.28376e-60 9.99416e-61 4.28903e-61 1.80549e-61 7.45699e-62 3.02252e-62 1.20259e-62 4.69802e-63 1.80244e-63 6.79295e-64 2.5154e-64 9.15387e-65 3.27453e-65 1.15169e-65 3.98342e-66 1.35521e-66 4.536e-67 1.49399e-67 4.84299e-68 1.54539e-68 4.85259e-69 1.49072e-69 4.17278e-70 0 
0 5.26731e-98 3.04378e-97 1.69143e-96 9.30074e-96 5.0646e-95 2.73093e-94 1.45807e-93 7.70746e-93 4.03338e-92 2.08936e-91 1.07128e-90 5.43624e-90 2.72998e-89 1.35657e-88 6.66966e-88 3.24416e-87 1.56096e-86 7.42895e-86 3.49675e-85 1.62762e-84 7.49119e-84 3.40882e-83 1.53344e-82 6.81845e-82 2.99648e-81 1.30134e-80 5.58435e-80 2.36756e-79 9.91559e-79 4.10178e-78 1.67573e-77 6.76009e-77 2.69254e-76 1.05869e-75 4.10876e-75 1.57371e-74 5.9477e-74 2.21776e-73 8.15746e-73 2.95939e-72 1.05873e-71 3.7345e-71 1.2986e-70 4.45075e-70 1.50326e-69 5.00267e-69 1.64005e-68 5.29562e-68 1.68385e-67 5.27145e-67 1.62448e-66 4.92682e-66 1.47029e-65 4.31647e-65 1.24639e-64 3.53907e-64 9.87952e-64 2.7108e-63 7.30933e-63 1.93631e-62 5.03837e-62 1.28742e-61 3.22969e-61 7.95254e-61 1.92154e-60 4.55497e-60 1.05902e-59 2.41432e-59 5.39573e-59 1.18184e-58 2.53634e-58 5.33201e-58 1.09773e-57 2.21265e-57 4.36552e-57 8.42869e-57 1.59213e-56 2.94168e-56 5.3151e-56 9.38934e-56 1.62136e-55 2.73632e-55 4.51258e-55 7.27094e-55 1.14449e-54 1.75976e-54 2.64295e-54 3.87713e-54 5.55564e-54 7.77665e-54 1.06353e-53 1.42132e-53 1.85672e-53 2.37176e-53 2.96393e-53 3.62565e-53 4.34429e-53 5.1029e-53 5.88144e-53 6.65851e-53 7.41327e-53 8.12726e-53 8.78583e-53 9.37901e-53 9.90173e-53 1.03534e-52 1.07369e-52 1.10574e-52 1.13209e-52 1.1533e-52 1.16977e-52 1.18171e-52 1.1891e-52 1.19172e-52 1.18924e-52 1.18132e-52 1.16777e-52 1.14864e-52 1.12439e-52 1.09593e-52 1.06465e-52 1.03234e-52 1.00104e-52 9.72879e-53 9.49815e-53 9.33434e-53 9.2477e-53 9.24189e-53 9.31377e-53 9.45398e-53 9.64838e-53 9.87989e-53 1.01305e-52 1.0383e-52 1.06225e-52 1.08376e-52 1.10203e-52 1.1166e-52 1.12737e-52 1.13445e-52 1.13817e-52 1.139e-52 1.13748e-52 1.13419e-52 1.12973e-52 1.12467e-52 1.11952e-52 1.11474e-52 1.11072e-52 1.10777e-52 1.10616e-52 1.10608e-52 1.1077e-52 1.11113e-52 1.11642e-52 1.12358e-52 1.13252e-52 1.14309e-52 1.15505e-52 1.16812e-52 1.18201e-52 1.19642e-52 1.21115e-52 1.22602e-52 1.24092e-52 1.25577e-52 1.2704e-52 1.28456e-52 1.29785e-52 1.30968e-52 1.31935e-52 1.32615e-52 1.3294e-52 1.32864e-52 1.32374e-52 1.31488e-52 1.30261e-52 1.28772e-52 1.27113e-52 1.25369e-52 1.23607e-52 1.21855e-52 1.20105e-52 1.18307e-52 1.1638e-52 1.14223e-52 1.11735e-52 1.08825e-52 1.05427e-52 1.0151e-52 9.70731e-53 9.21479e-53 8.67891e-53 8.10671e-53 7.50606e-53 6.88511e-53 6.25212e-53 5.61542e-53 4.98349e-53 4.36509e-53 3.76915e-53 3.20449e-53 2.67932e-53 2.20066e-53 1.77379e-53 1.40175e-53 1.08523e-53 8.22536e-54 6.10008e-54 4.42456e-54 3.13767e-54 2.1749e-54 1.47329e-54 9.7524e-55 6.30791e-55 3.9867e-55 2.46217e-55 1.48606e-55 8.76631e-56 5.05505e-56 2.84992e-56 1.57116e-56 8.47179e-57 4.46879e-57 2.30654e-57 1.16517e-57 5.76207e-58 2.79019e-58 1.32331e-58 6.14856e-59 2.79946e-59 1.24932e-59 5.46617e-60 2.34536e-60 9.87097e-61 4.07609e-61 1.65183e-61 6.57102e-62 2.56654e-62 9.84497e-63 3.70966e-63 1.37343e-63 4.99723e-64 1.78732e-64 6.28517e-65 2.17355e-65 7.39356e-66 2.47433e-66 8.14835e-67 2.64105e-67 8.42645e-68 2.64561e-68 8.12639e-69 2.27449e-69 0 
0 2.83636e-97 1.6389e-96 9.1067e-96 5.00716e-95 2.72639e-94 1.47002e-93 7.84808e-93 4.14828e-92 2.1707e-91 1.1244e-90 5.76484e-90 2.92524e-89 1.46893e-88 7.29904e-88 3.58848e-87 1.74539e-86 8.39787e-86 3.99662e-85 1.88113e-84 8.75591e-84 4.02987e-83 1.83375e-82 8.24894e-82 3.66789e-81 1.61192e-80 7.00044e-80 3.00408e-79 1.27364e-78 5.33424e-78 2.20667e-77 9.0153e-77 3.63701e-76 1.44867e-75 5.69636e-75 2.21086e-74 8.46839e-74 3.20074e-73 1.19356e-72 4.39052e-72 1.59293e-71 5.69922e-71 2.01049e-70 6.99173e-70 2.39655e-69 8.09534e-69 2.69433e-68 8.83398e-68 2.8528e-67 9.0722e-67 2.84052e-66 8.75474e-66 2.65559e-65 7.92614e-65 2.32732e-64 6.72132e-64 1.90881e-63 5.32947e-63 1.46259e-62 3.94442e-62 1.04511e-61 2.71996e-61 6.95149e-61 1.74424e-60 4.29576e-60 1.03819e-59 2.46151e-59 5.72418e-59 1.30526e-58 2.91774e-58 6.39218e-58 1.37213e-57 2.88517e-57 5.94113e-57 1.19779e-56 2.36372e-56 4.56468e-56 8.6242e-56 1.59376e-55 2.88019e-55 5.08893e-55 8.78921e-55 1.48358e-54 2.44702e-54 3.94339e-54 6.208e-54 9.54657e-54 1.43394e-53 2.10376e-53 3.01478e-53 4.22031e-53 5.77194e-53 7.71401e-53 1.00772e-52 1.28726e-52 1.60862e-52 1.96769e-52 2.35758e-52 2.76907e-52 3.19126e-52 3.61254e-52 4.02159e-52 4.40839e-52 4.76501e-52 5.08605e-52 5.36881e-52 5.61299e-52 5.8202e-52 5.99326e-52 6.13546e-52 6.24982e-52 6.33861e-52 6.40294e-52 6.44272e-52 6.45677e-52 6.4433e-52 6.40049e-52 6.32722e-52 6.22385e-52 6.09282e-52 5.93906e-52 5.77006e-52 5.59546e-52 5.42636e-52 5.2742e-52 5.14961e-52 5.06115e-52 5.01439e-52 5.01134e-52 5.05027e-52 5.12613e-52 5.23127e-52 5.35643e-52 5.49189e-52 5.62835e-52 5.75781e-52 5.87402e-52 5.97267e-52 6.0514e-52 6.10951e-52 6.14772e-52 6.1678e-52 6.17224e-52 6.16399e-52 6.14623e-52 6.12215e-52 6.09481e-52 6.06701e-52 6.04121e-52 6.01949e-52 6.00359e-52 5.99487e-52 5.99444e-52 6.00316e-52 6.02162e-52 6.05016e-52 6.08876e-52 6.13699e-52 6.19399e-52 6.25852e-52 6.32904e-52 6.40395e-52 6.48174e-52 6.56119e-52 6.64143e-52 6.72188e-52 6.80201e-52 6.88101e-52 6.95749e-52 7.02924e-52 7.09316e-52 7.14547e-52 7.1822e-52 7.19979e-52 7.19576e-52 7.16929e-52 7.12146e-52 7.05519e-52 6.97478e-52 6.88517e-52 6.79103e-52 6.69585e-52 6.60129e-52 6.50682e-52 6.40978e-52 6.30577e-52 6.1894e-52 6.0551e-52 5.89802e-52 5.7146e-52 5.50305e-52 5.26339e-52 4.99727e-52 4.70764e-52 4.39827e-52 4.07336e-52 3.73733e-52 3.39459e-52 3.04965e-52 2.70711e-52 2.37173e-52 2.04835e-52 1.74181e-52 1.45658e-52 1.19652e-52 9.64529e-53 7.62291e-53 5.9019e-53 4.47342e-53 3.31759e-53 2.40629e-53 1.70636e-53 1.18271e-53 8.01113e-54 5.30244e-54 3.42928e-54 2.16709e-54 1.33821e-54 8.07563e-55 4.7631e-55 2.74616e-55 1.54795e-55 8.53227e-56 4.59978e-56 2.42586e-56 1.25185e-56 6.32252e-57 3.12601e-57 1.5134e-57 7.17615e-58 3.33357e-58 1.51746e-58 6.77059e-59 2.96172e-59 1.27051e-59 5.34612e-60 2.20716e-60 8.94267e-61 3.5567e-61 1.38892e-61 5.32671e-62 2.00676e-62 7.42828e-63 2.7023e-63 9.66337e-64 3.39758e-64 1.17477e-64 3.99544e-65 1.3369e-65 4.40197e-66 1.42656e-66 4.55091e-67 1.42863e-67 4.38772e-68 1.22794e-68 0 
0 1.51223e-96 8.73728e-96 4.85459e-95 2.66902e-94 1.45318e-93 7.83476e-93 4.18252e-92 2.21064e-91 1.15671e-90 5.9913e-90 3.07162e-89 1.55855e-88 7.82606e-88 3.88857e-87 1.9117e-86 9.29799e-86 4.47356e-85 2.12896e-84 1.00204e-83 4.66401e-83 2.14656e-82 9.76763e-82 4.39387e-81 1.95374e-80 8.58608e-80 3.72891e-79 1.6002e-78 6.7845e-78 2.84155e-77 1.17553e-76 4.80278e-76 1.93765e-75 7.71828e-75 3.03507e-74 1.17803e-73 4.51257e-73 1.7057e-72 6.36105e-72 2.3401e-71 8.49086e-71 3.03816e-70 1.07186e-69 3.72791e-69 1.27795e-68 4.3173e-68 1.43708e-67 4.71238e-67 1.52199e-66 4.84077e-66 1.51587e-65 4.67275e-65 1.41761e-64 4.23184e-64 1.24279e-63 3.5898e-63 1.01966e-62 2.84746e-62 7.81592e-62 2.10826e-61 5.58716e-61 1.45438e-60 3.71779e-60 9.33051e-60 2.29844e-59 5.55603e-59 1.31761e-58 3.06476e-58 6.99006e-58 1.56289e-57 3.42477e-57 7.35318e-57 1.54651e-56 3.18529e-56 6.42331e-56 1.26786e-55 2.44896e-55 4.6279e-55 8.55418e-55 1.5462e-54 2.73248e-54 4.72022e-54 7.96897e-54 1.31463e-53 2.11886e-53 3.33618e-53 5.13101e-53 7.70794e-53 1.13096e-52 1.62086e-52 2.26916e-52 3.10361e-52 4.14801e-52 5.41887e-52 6.92201e-52 8.64992e-52 1.05803e-51 1.2676e-51 1.48873e-51 1.71557e-51 1.94184e-51 2.16146e-51 2.36905e-51 2.56035e-51 2.73248e-51 2.88399e-51 3.01475e-51 3.12565e-51 3.2182e-51 3.29421e-51 3.3553e-51 3.40271e-51 3.43704e-51 3.45824e-51 3.4657e-51 3.45845e-51 3.43551e-51 3.39629e-51 3.34095e-51 3.27082e-51 3.18852e-51 3.09805e-51 3.0046e-51 2.91408e-51 2.83265e-51 2.76597e-51 2.71864e-51 2.69365e-51 2.69206e-51 2.71295e-51 2.75361e-51 2.80994e-51 2.87698e-51 2.94951e-51 3.02258e-51 3.09188e-51 3.15407e-51 3.20686e-51 3.24898e-51 3.28005e-51 3.30048e-51 3.31121e-51 3.31357e-51 3.30914e-51 3.29963e-51 3.28674e-51 3.27211e-51 3.25724e-51 3.24344e-51 3.23183e-51 3.22332e-51 3.21866e-51 3.21842e-51 3.22307e-51 3.23293e-51 3.24817e-51 3.26879e-51 3.29456e-51 3.32502e-51 3.3595e-51 3.39719e-51 3.43723e-51 3.4788e-51 3.52127e-51 3.56417e-51 3.60718e-51 3.65003e-51 3.69228e-51 3.7332e-51 3.77159e-51 3.80581e-51 3.83382e-51 3.85349e-51 3.86292e-51 3.86078e-51 3.84663e-51 3.82105e-51 3.7856e-51 3.74258e-51 3.69464e-51 3.64427e-51 3.59336e-51 3.54279e-51 3.49228e-51 3.44041e-51 3.38481e-51 3.3226e-51 3.2508e-51 3.16681e-51 3.06872e-51 2.95555e-51 2.82732e-51 2.68489e-51 2.52982e-51 2.36412e-51 2.19002e-51 2.00987e-51 1.82603e-51 1.6409e-51 1.45696e-51 1.27675e-51 1.10291e-51 9.3803e-52 7.84553e-52 6.44568e-52 5.1965e-52 4.10725e-52 3.18014e-52 2.4105e-52 1.78768e-52 1.29661e-52 9.19416e-53 6.37224e-53 4.31593e-53 2.85636e-53 1.8471e-53 1.1671e-53 7.20598e-54 4.34789e-54 2.56401e-54 1.47802e-54 8.32971e-55 4.59044e-55 2.47423e-55 1.30461e-55 6.73089e-56 3.39875e-56 1.68005e-56 8.1319e-57 3.85507e-57 1.79042e-57 8.14827e-58 3.63477e-58 1.58963e-58 6.81766e-59 2.86814e-59 1.18386e-59 4.79559e-60 1.90691e-60 7.44508e-61 2.85472e-61 1.07526e-61 3.97943e-62 1.44738e-62 5.17485e-63 1.81912e-63 6.28876e-64 2.13847e-64 7.15432e-65 2.3553e-65 7.63173e-66 2.43425e-66 7.64058e-67 2.34631e-67 6.56564e-68 0 
0 7.98209e-96 4.61154e-95 2.56207e-94 1.40851e-93 7.66828e-93 4.13408e-92 2.20681e-91 1.16633e-90 6.10245e-90 3.16067e-89 1.62034e-88 8.22131e-88 4.12806e-87 2.05106e-86 1.00831e-85 4.904e-85 2.35941e-84 1.12282e-83 5.2847e-83 2.45975e-82 1.13207e-81 5.1513e-81 2.31726e-80 1.03038e-79 4.52826e-79 1.96664e-78 8.43969e-78 3.57833e-77 1.49876e-76 6.20048e-76 2.53339e-75 1.02213e-74 4.07168e-74 1.6012e-73 6.21531e-73 2.381e-72 9.00057e-72 3.35684e-71 1.23502e-70 4.48157e-70 1.60373e-69 5.65855e-69 1.96825e-68 6.74807e-68 2.27998e-67 7.59022e-67 2.48928e-66 8.04093e-66 2.55783e-65 8.01101e-65 2.46983e-64 7.49418e-64 2.23754e-63 6.57228e-63 1.89876e-62 5.39432e-62 1.50669e-61 4.1365e-61 1.11601e-60 2.95819e-60 7.70207e-60 1.96929e-59 4.94341e-59 1.21802e-58 2.945e-58 6.98573e-58 1.62526e-57 3.70776e-57 8.29209e-57 1.81749e-56 3.9032e-56 8.21112e-56 1.69163e-55 3.41207e-55 6.73647e-55 1.3015e-54 2.46005e-54 4.54815e-54 8.22276e-54 1.45344e-53 2.51125e-53 4.24045e-53 6.99666e-53 1.12788e-52 1.77614e-52 2.73206e-52 4.10469e-52 6.02336e-52 8.63329e-52 1.20873e-51 1.65331e-51 2.20975e-51 2.88682e-51 3.68759e-51 4.60801e-51 5.63612e-51 6.7521e-51 7.9294e-51 9.13669e-51 1.03406e-50 1.15087e-50 1.26123e-50 1.36289e-50 1.4543e-50 1.53472e-50 1.60408e-50 1.66286e-50 1.71189e-50 1.75212e-50 1.78444e-50 1.80951e-50 1.82766e-50 1.83885e-50 1.84277e-50 1.83891e-50 1.82673e-50 1.80593e-50 1.77659e-50 1.7394e-50 1.69576e-50 1.6478e-50 1.59825e-50 1.55025e-50 1.50708e-50 1.47173e-50 1.44665e-50 1.43342e-50 1.4326e-50 1.4437e-50 1.46529e-50 1.49518e-50 1.53075e-50 1.56923e-50 1.60798e-50 1.64472e-50 1.67769e-50 1.70567e-50 1.72799e-50 1.74445e-50 1.75527e-50 1.76094e-50 1.76218e-50 1.75983e-50 1.75479e-50 1.74795e-50 1.7402e-50 1.73232e-50 1.72501e-50 1.71886e-50 1.71435e-50 1.71188e-50 1.71175e-50 1.7142e-50 1.71942e-50 1.72748e-50 1.73839e-50 1.75203e-50 1.76815e-50 1.7864e-50 1.80636e-50 1.82755e-50 1.84956e-50 1.87205e-50 1.89477e-50 1.91755e-50 1.94024e-50 1.96263e-50 1.98431e-50 2.00467e-50 2.0228e-50 2.03766e-50 2.0481e-50 2.05311e-50 2.05199e-50 2.0445e-50 2.03094e-50 2.01215e-50 1.98935e-50 1.96395e-50 1.93726e-50 1.91028e-50 1.88349e-50 1.85675e-50 1.82928e-50 1.79984e-50 1.7669e-50 1.72889e-50 1.6844e-50 1.63244e-50 1.57248e-50 1.50452e-50 1.42901e-50 1.34677e-50 1.25886e-50 1.16646e-50 1.07079e-50 9.73106e-51 8.74683e-51 7.7683e-51 6.8091e-51 5.88327e-51 5.00474e-51 4.18659e-51 3.44008e-51 2.7737e-51 2.19248e-51 1.69768e-51 1.28685e-51 9.54363e-52 6.92185e-52 4.90802e-52 3.4014e-52 2.30358e-52 1.52439e-52 9.85647e-53 6.22704e-53 3.84414e-53 2.31907e-53 1.36735e-53 7.88056e-54 4.44041e-54 2.44658e-54 1.31842e-54 6.95022e-55 3.58505e-55 1.80985e-55 8.94433e-56 4.32828e-56 2.05142e-56 9.5252e-57 4.33395e-57 1.93282e-57 8.45106e-58 3.62367e-58 1.5241e-58 6.28947e-59 2.54717e-59 1.01263e-59 3.9527e-60 1.51529e-60 5.70628e-61 2.1114e-61 7.67795e-62 2.74457e-62 9.64616e-63 3.3341e-63 1.13355e-63 3.79164e-64 1.24805e-64 4.04331e-65 1.28947e-65 4.04675e-66 1.24252e-66 3.47652e-67 0 
0 4.17083e-95 2.40947e-94 1.33856e-93 7.35831e-93 4.00579e-92 2.15945e-91 1.15267e-90 6.09168e-90 3.18713e-89 1.65065e-88 8.46178e-88 4.2932e-87 2.15561e-86 1.071e-85 5.26493e-85 2.56059e-84 1.23193e-83 5.86251e-83 2.75924e-82 1.28427e-81 5.91068e-81 2.68957e-80 1.20989e-79 5.37986e-79 2.36435e-78 1.02687e-77 4.40685e-77 1.86851e-76 7.82643e-76 3.23799e-75 1.32304e-74 5.33824e-74 2.12663e-73 8.36358e-73 3.24668e-72 1.24385e-71 4.70234e-71 1.75393e-70 6.45352e-70 2.34205e-69 8.38192e-69 2.95778e-68 1.02894e-67 3.52814e-67 1.19221e-66 3.96951e-66 1.30202e-65 4.20646e-65 1.33829e-64 4.19215e-64 1.29268e-63 3.92305e-63 1.17152e-62 3.44173e-62 9.94523e-62 2.82598e-61 7.89489e-61 2.16794e-60 5.85028e-60 1.55107e-59 4.03936e-59 1.03304e-58 2.5938e-58 6.39247e-58 1.54599e-57 3.66809e-57 8.53611e-57 1.94786e-56 4.35733e-56 9.55297e-56 2.0521e-55 4.31808e-55 8.89822e-55 1.79525e-54 3.54526e-54 6.85117e-54 1.2953e-53 2.39532e-53 4.33155e-53 7.65807e-53 1.32343e-52 2.23517e-52 3.68869e-52 5.94731e-52 9.36709e-52 1.44106e-51 2.16536e-51 3.17789e-51 4.55532e-51 6.37829e-51 8.72481e-51 1.16617e-50 1.52352e-50 1.94612e-50 2.43181e-50 2.97425e-50 3.56294e-50 4.18383e-50 4.82036e-50 5.45488e-50 6.07029e-50 6.65147e-50 7.18649e-50 7.66736e-50 8.09011e-50 8.45447e-50 8.76304e-50 9.02024e-50 9.23116e-50 9.40052e-50 9.53179e-50 9.62674e-50 9.68527e-50 9.70567e-50 9.68525e-50 9.62124e-50 9.51195e-50 9.35786e-50 9.16257e-50 8.9334e-50 8.6815e-50 8.42125e-50 8.1692e-50 7.94245e-50 7.75685e-50 7.62519e-50 7.55579e-50 7.55162e-50 7.61008e-50 7.72361e-50 7.88074e-50 8.06768e-50 8.26984e-50 8.47339e-50 8.66639e-50 8.83952e-50 8.98641e-50 9.10353e-50 9.18991e-50 9.24664e-50 9.27636e-50 9.28282e-50 9.27043e-50 9.24391e-50 9.20803e-50 9.16734e-50 9.12598e-50 9.08762e-50 9.05534e-50 9.03168e-50 9.01868e-50 9.01798e-50 9.03083e-50 9.05813e-50 9.10039e-50 9.15757e-50 9.22905e-50 9.31357e-50 9.40927e-50 9.51389e-50 9.62504e-50 9.74047e-50 9.8584e-50 9.97754e-50 1.0097e-49 1.02161e-49 1.03336e-49 1.04474e-49 1.05543e-49 1.06495e-49 1.07276e-49 1.07825e-49 1.08088e-49 1.0803e-49 1.07637e-49 1.06926e-49 1.0594e-49 1.04743e-49 1.03409e-49 1.02008e-49 1.00592e-49 9.91869e-50 9.77838e-50 9.63433e-50 9.47997e-50 9.30726e-50 9.10789e-50 8.87455e-50 8.60193e-50 8.28728e-50 7.93053e-50 7.53406e-50 7.1021e-50 6.64016e-50 6.15436e-50 5.65115e-50 5.13706e-50 4.61875e-50 4.10312e-50 3.59738e-50 3.10895e-50 2.64524e-50 2.2132e-50 1.81883e-50 1.46667e-50 1.15944e-50 8.97825e-51 6.80576e-51 5.04734e-51 3.66067e-51 2.59552e-51 1.79865e-51 1.21801e-51 8.05929e-52 5.21034e-52 3.29127e-52 2.03148e-52 1.22533e-52 7.22331e-53 4.16226e-53 2.3448e-53 1.29166e-53 6.959e-54 3.6677e-54 1.89142e-54 9.54626e-55 4.71664e-55 2.28189e-55 1.08125e-55 5.01925e-56 2.28318e-56 1.01799e-56 4.44993e-57 1.90759e-57 8.02129e-58 3.30933e-58 1.33992e-58 5.32562e-59 2.07833e-59 7.96558e-60 2.99902e-60 1.10944e-60 4.03353e-61 1.44154e-61 5.06544e-62 1.75047e-62 5.95023e-63 1.98995e-63 6.54889e-64 2.12129e-64 6.76395e-65 2.12239e-65 6.51565e-66 1.82282e-66 0 