# vtk DataFile Version 3.0
Gray-Scott Simulation Output
ASCII
DATASET STRUCTURED_POINTS
DIMENSIONS 256 256 1
SPACING 1.0 1.0 1.0
ORIGIN 0 0 0
POINT_DATA 65536
SCALARS u double
LOOKUP_TABLE default
0 0 0 0 0 0 0 0 0 0 0 0 0 0 0 0 0 0 0 0 0 0 0 0 0 0 0 0 0 0 0 0 0 0 0 0 0 0 0 0 0 0 0 0 0 0 0 0 0 0 0 0 0 0 0 0 0 0 0 0 0 0 0 0 0 0 0 0 0 0 0 0 0 0 0 0 0 0 0 0 0 0 0 0 0 0 0 0 0 0 0 0 0 0 0 0 0 0 0 0 0 0 0 0 0 0 0 0 0 0 0 0 0 0 0 0 0 0 0 0 0 0 0 0 0 0 0 0 0 0 0 0 0 0 0 0 0 0 0 0 0 0 0 0 0 0 0 0 0 0 0 0 0 0 0 0 0 0 0 0 0 0 0 0 0 0 0 0 0 0 0 0 0 0 0 0 0 0 0 0 0 0 0 0 0 0 0 0 0 0 0 0 0 0 0 0 0 0 0 0 0 0 0 0 0 0 0 0 0 0 0 0 0 0 0 0 0 0 0 0 0 0 0 0 0 0 0 0 0 0 0 0 0 0 0 0 0 0 0 0 0 0 0 0 0 0 0 0 0 0 0 0 0 0 0 0 
0 3.41098e-75 1.15106e-74 3.52339e-74 1.0606e-73 3.16443e-73 9.36537e-73 2.74951e-72 8.00699e-72 2.31283e-71 6.62604e-71 1.88269e-70 5.30509e-70 1.48243e-69 4.10766e-69 1.12858e-68 3.07442e-68 8.30348e-68 2.2233e-67 5.90136e-67 1.55273e-66 4.0495e-66 1.04675e-65 2.6816e-65 6.80812e-65 1.71283e-64 4.26998e-64 1.05471e-63 2.58115e-63 6.25792e-63 1.503e-62 3.57573e-62 8.42602e-62 1.96653e-61 4.54533e-61 1.04037e-60 2.35796e-60 5.29151e-60 1.17567e-59 2.58593e-59 5.63049e-59 1.2135e-58 2.58856e-58 5.4648e-58 1.1417e-57 2.36022e-57 4.82776e-57 9.76999e-57 1.95597e-56 3.87361e-56 7.58783e-56 1.47005e-55 2.81657e-55 5.33641e-55 9.99723e-55 1.85172e-54 3.39079e-54 6.13786e-54 1.09822e-53 1.94213e-53 3.39429e-53 5.86225e-53 1.00044e-52 1.68689e-52 2.81011e-52 4.62447e-52 7.51743e-52 1.20701e-51 1.91407e-51 2.99762e-51 4.63593e-51 7.0796e-51 1.06749e-50 1.58921e-50 2.33579e-50 3.38922e-50 4.85467e-50 6.86431e-50 9.58073e-50 1.31994e-49 1.79496e-49 2.40935e-49 3.1922e-49 4.17476e-49 5.38936e-49 6.8679e-49 8.64007e-49 1.07312e-48 1.31601e-48 1.59365e-48 1.90597e-48 2.25161e-48 2.62789e-48 3.03076e-48 3.45489e-48 3.89384e-48 4.34031e-48 4.78649e-48 5.22445e-48 5.64651e-48 6.04564e-48 6.41579e-48 6.75215e-48 7.05131e-48 7.31129e-48 7.53149e-48 7.71257e-48 7.85621e-48 7.96485e-48 8.04145e-48 8.08922e-48 8.11141e-48 8.11119e-48 8.0915e-48 8.0551e-48 8.00455e-48 7.94227e-48 7.87065e-48 7.79212e-48 7.70918e-48 7.62446e-48 7.54069e-48 7.46062e-48 7.38695e-48 7.32219e-48 7.26851e-48 7.22762e-48 7.20067e-48 7.18816e-48 7.18987e-48 7.20498e-48 7.232e-48 7.269e-48 7.31368e-48 7.36353e-48 7.41603e-48 7.46877e-48 7.51959e-48 7.5667e-48 7.60873e-48 7.6448e-48 7.67446e-48 7.69774e-48 7.71505e-48 7.72711e-48 7.73492e-48 7.73962e-48 7.74247e-48 7.74475e-48 7.7477e-48 7.75248e-48 7.7601e-48 7.77143e-48 7.78717e-48 7.80781e-48 7.83366e-48 7.86482e-48 7.90121e-48 7.94258e-48 7.9885e-48 8.03839e-48 8.0915e-48 8.14698e-48 8.20384e-48 8.26098e-48 8.31722e-48 8.37131e-48 8.42197e-48 8.46792e-48 8.50792e-48 8.54083e-48 8.56563e-48 8.58151e-48 8.58784e-48 8.58424e-48 8.57057e-48 8.54691e-48 8.51352e-48 8.47078e-48 8.41914e-48 8.35901e-48 8.29072e-48 8.21439e-48 8.12995e-48 8.03703e-48 7.935e-48 7.82291e-48 7.69956e-48 7.56356e-48 7.41334e-48 7.24729e-48 7.06383e-48 6.86152e-48 6.63919e-48 6.39604e-48 6.13178e-48 5.84673e-48 5.54188e-48 5.21897e-48 4.88048e-48 4.52963e-48 4.17024e-48 3.80666e-48 3.44356e-48 3.08574e-48 2.73791e-48 2.40448e-48 2.08935e-48 1.79576e-48 1.52619e-48 1.28227e-48 1.06478e-48 8.73704e-49 7.08292e-49 5.67203e-49 4.4863e-49 3.50439e-49 2.70317e-49 2.05892e-49 1.54841e-49 1.14974e-49 8.42876e-50 6.10062e-50 4.35942e-50 3.0756e-50 2.14233e-50 1.47335e-50 1.00047e-50 6.70808e-51 4.44125e-51 2.90366e-51 1.87476e-51 1.19544e-51 7.52873e-52 4.68332e-52 2.87776e-52 1.74684e-52 1.04757e-52 6.20693e-53 3.63385e-53 2.10226e-53 1.20191e-53 6.79136e-54 3.79294e-54 2.09395e-54 1.14278e-54 6.16592e-55 3.28934e-55 1.7351e-55 9.04987e-56 4.66616e-56 2.37522e-56 1.18667e-56 5.66862e-57 2.26475e-57 0 
0 1.14905e-74 3.87833e-74 1.18743e-73 3.57528e-73 1.067e-72 3.1587e-72 9.27588e-72 2.70201e-71 7.80696e-71 2.23726e-70 6.35868e-70 1.7923e-69 5.00981e-69 1.3886e-68 3.81637e-68 1.03997e-67 2.80969e-67 7.5256e-67 1.99821e-66 5.25937e-66 1.37212e-65 3.54804e-65 9.09279e-65 2.30935e-64 5.81217e-64 1.44949e-63 3.58173e-63 8.76883e-63 2.12683e-62 5.11016e-62 1.21624e-61 2.8672e-61 6.6945e-61 1.54799e-60 3.5447e-60 8.03746e-60 1.80449e-59 4.01099e-59 8.82635e-59 1.92269e-58 4.14572e-58 8.84753e-58 1.86871e-57 3.9059e-57 8.07847e-57 1.65321e-56 3.34723e-56 6.70445e-56 1.32839e-55 2.60337e-55 5.04614e-55 9.67293e-55 1.83356e-54 3.43664e-54 6.36851e-54 1.16673e-53 2.11295e-53 3.78237e-53 6.69197e-53 1.1701e-52 2.02178e-52 3.45183e-52 5.82284e-52 9.70406e-52 1.59761e-51 2.59808e-51 4.17315e-51 6.62021e-51 1.03716e-50 1.60455e-50 2.45113e-50 3.69706e-50 5.5055e-50 8.094e-50 1.17472e-49 1.68302e-49 2.38018e-49 3.32264e-49 4.57824e-49 6.22656e-49 8.35848e-49 1.10748e-48 1.44839e-48 1.86974e-48 2.38256e-48 2.99706e-48 3.72194e-48 4.56356e-48 5.52519e-48 6.60631e-48 7.80201e-48 9.10275e-48 1.04942e-47 1.19577e-47 1.34705e-47 1.50074e-47 1.6541e-47 1.80437e-47 1.94891e-47 2.08529e-47 2.21144e-47 2.32573e-47 2.42701e-47 2.51464e-47 2.58848e-47 2.64879e-47 2.69622e-47 2.73165e-47 2.75615e-47 2.77086e-47 2.77694e-47 2.7755e-47 2.76755e-47 2.75406e-47 2.73589e-47 2.71388e-47 2.68882e-47 2.66154e-47 2.63285e-47 2.60366e-47 2.57487e-47 2.5474e-47 2.52216e-47 2.49999e-47 2.48162e-47 2.46764e-47 2.45841e-47 2.45411e-47 2.45467e-47 2.45978e-47 2.46895e-47 2.48152e-47 2.4967e-47 2.51364e-47 2.53148e-47 2.54939e-47 2.56664e-47 2.58262e-47 2.59688e-47 2.60909e-47 2.61913e-47 2.627e-47 2.63283e-47 2.63688e-47 2.63948e-47 2.64104e-47 2.64196e-47 2.6427e-47 2.64366e-47 2.64526e-47 2.64782e-47 2.65165e-47 2.65699e-47 2.66399e-47 2.67277e-47 2.68336e-47 2.69573e-47 2.7098e-47 2.72542e-47 2.74238e-47 2.76046e-47 2.77933e-47 2.79868e-47 2.81813e-47 2.83727e-47 2.85569e-47 2.87294e-47 2.8886e-47 2.90224e-47 2.91346e-47 2.92194e-47 2.92738e-47 2.92958e-47 2.92841e-47 2.92384e-47 2.91588e-47 2.90464e-47 2.89025e-47 2.87287e-47 2.85265e-47 2.82971e-47 2.8041e-47 2.77581e-47 2.74471e-47 2.71059e-47 2.67313e-47 2.63192e-47 2.58648e-47 2.53626e-47 2.48069e-47 2.4192e-47 2.35129e-47 2.27652e-47 2.19457e-47 2.10533e-47 2.00885e-47 1.90545e-47 1.79569e-47 1.6804e-47 1.56067e-47 1.43781e-47 1.3133e-47 1.18877e-47 1.06587e-47 9.4624e-48 8.31427e-48 7.228e-48 6.21502e-48 5.28412e-48 4.44113e-48 3.68898e-48 3.02777e-48 2.45509e-48 1.96641e-48 1.55555e-48 1.21522e-48 9.37448e-49 7.14051e-49 5.37005e-49 3.98729e-49 2.92291e-49 2.11538e-49 1.51144e-49 1.06618e-49 7.42532e-50 5.10567e-50 3.46624e-50 2.32353e-50 1.53796e-50 1.00524e-50 6.48845e-51 4.1361e-51 2.60402e-51 1.61931e-51 9.9467e-52 6.03561e-52 3.61818e-52 2.14297e-52 1.25411e-52 7.25243e-53 4.14469e-53 2.34098e-53 1.30688e-53 7.21174e-54 3.93414e-54 2.12177e-54 1.13141e-54 5.96547e-55 3.11009e-55 1.60288e-55 8.15563e-56 4.07288e-56 1.94486e-56 7.76805e-57 0 
0 3.50988e-74 1.18495e-73 3.62902e-73 1.093e-72 3.26295e-72 9.66253e-72 2.83843e-71 8.27092e-71 2.39053e-70 6.85297e-70 1.94841e-69 5.49388e-69 1.5362e-68 4.25957e-68 1.17113e-67 3.19258e-67 8.6288e-67 2.3121e-66 6.14164e-66 1.61717e-65 4.22083e-65 1.0919e-64 2.7995e-64 7.1132e-64 1.79106e-63 4.46876e-63 1.10476e-62 2.70596e-62 6.56629e-62 1.57847e-61 3.75868e-61 8.86526e-61 2.07096e-60 4.79123e-60 1.0977e-59 2.4903e-59 5.59394e-59 1.24409e-58 2.73916e-58 5.97012e-58 1.288e-57 2.75031e-57 5.81226e-57 1.21555e-56 2.51552e-56 5.15083e-56 1.04348e-55 2.09129e-55 4.14599e-55 8.13002e-55 1.57677e-54 3.02426e-54 5.73598e-54 1.07572e-53 1.99458e-53 3.65621e-53 6.6252e-53 1.18663e-52 2.10062e-52 3.67498e-52 6.35332e-52 1.08529e-51 1.83172e-51 3.05421e-51 5.03074e-51 8.18507e-51 1.31534e-50 2.08757e-50 3.27191e-50 5.06393e-50 7.73875e-50 1.16767e-49 1.73945e-49 2.55809e-49 3.71376e-49 5.3221e-49 7.52846e-49 1.05116e-48 1.44862e-48 1.97044e-48 2.64535e-48 3.50525e-48 4.58432e-48 5.91781e-48 7.5404e-48 9.48414e-48 1.17761e-47 1.4436e-47 1.74735e-47 2.08862e-47 2.46577e-47 2.87567e-47 3.31372e-47 3.77389e-47 4.24895e-47 4.73077e-47 5.21072e-47 5.68004e-47 6.13037e-47 6.5541e-47 6.94479e-47 7.29738e-47 7.60843e-47 7.87611e-47 8.10012e-47 8.28154e-47 8.42255e-47 8.52615e-47 8.59586e-47 8.63542e-47 8.64854e-47 8.63879e-47 8.60944e-47 8.56348e-47 8.50363e-47 8.43242e-47 8.35232e-47 8.26579e-47 8.17537e-47 8.08372e-47 7.9936e-47 7.90782e-47 7.82913e-47 7.7601e-47 7.70294e-47 7.65942e-47 7.63069e-47 7.61723e-47 7.61883e-47 7.63454e-47 7.66283e-47 7.70161e-47 7.74846e-47 7.80073e-47 7.85575e-47 7.91099e-47 7.96417e-47 8.01342e-47 8.0573e-47 8.09487e-47 8.1257e-47 8.1498e-47 8.16762e-47 8.17994e-47 8.18779e-47 8.1924e-47 8.1951e-47 8.19722e-47 8.20007e-47 8.20487e-47 8.2127e-47 8.22445e-47 8.24086e-47 8.26245e-47 8.28953e-47 8.32221e-47 8.36042e-47 8.40387e-47 8.45212e-47 8.50456e-47 8.56041e-47 8.61877e-47 8.6786e-47 8.73874e-47 8.79796e-47 8.85494e-47 8.90834e-47 8.95681e-47 8.99905e-47 9.03386e-47 9.06019e-47 9.07716e-47 9.08415e-47 9.08077e-47 9.06691e-47 9.04267e-47 9.00837e-47 8.96446e-47 8.91147e-47 8.84988e-47 8.78009e-47 8.70231e-47 8.6165e-47 8.52233e-47 8.41913e-47 8.30594e-47 8.18147e-47 8.04417e-47 7.89233e-47 7.72411e-47 7.53767e-47 7.3313e-47 7.10354e-47 6.85329e-47 6.58001e-47 6.28377e-47 5.96542e-47 5.62661e-47 5.26984e-47 4.89844e-47 4.51648e-47 4.1286e-47 3.73988e-47 3.3556e-47 2.98096e-47 2.62087e-47 2.27974e-47 1.96126e-47 1.66827e-47 1.40271e-47 1.16557e-47 9.56953e-48 7.76158e-48 6.21799e-48 4.91967e-48 3.84381e-48 2.96544e-48 2.25886e-48 1.69879e-48 1.26131e-48 9.24548e-49 6.69043e-49 4.77966e-49 3.37103e-49 2.34724e-49 1.6136e-49 1.09519e-49 7.33934e-50 4.85646e-50 3.17321e-50 2.04748e-50 1.3047e-50 8.21098e-51 5.10394e-51 3.1338e-51 1.90075e-51 1.13894e-51 6.74259e-52 3.94405e-52 2.27971e-52 1.30219e-52 7.35131e-53 4.10188e-53 2.26239e-53 1.23354e-53 6.64928e-54 3.54381e-54 1.86752e-54 9.73117e-55 5.0126e-55 2.54914e-55 1.27239e-55 6.07311e-56 2.4249e-56 0 
0 1.05423e-73 3.56003e-73 1.09062e-72 3.28582e-72 9.81237e-72 2.9067e-71 8.54151e-71 2.48978e-70 7.19874e-70 2.06442e-69 5.87165e-69 1.65623e-68 4.63295e-68 1.28512e-67 3.53474e-67 9.63986e-67 2.60651e-66 6.98714e-66 1.85679e-65 4.89132e-65 1.27721e-64 3.30553e-64 8.4789e-64 2.1554e-63 5.42976e-63 1.3554e-62 3.35244e-62 8.21547e-62 1.99458e-61 4.79722e-61 1.14292e-60 2.69714e-60 6.30401e-60 1.45924e-59 3.34506e-59 7.593e-59 1.70657e-58 3.79756e-58 8.36605e-58 1.82448e-57 3.93846e-57 8.41489e-57 1.77939e-56 3.72356e-56 7.7104e-56 1.57976e-55 3.2023e-55 6.4218e-55 1.27391e-54 2.49959e-54 4.85077e-54 9.30956e-54 1.76679e-53 3.31543e-53 6.15118e-53 1.12824e-52 2.04564e-52 3.66611e-52 6.4937e-52 1.13671e-51 1.96628e-51 3.36075e-51 5.67527e-51 9.46805e-51 1.56035e-50 2.54e-50 4.08378e-50 6.48444e-50 1.01679e-49 1.57438e-49 2.40697e-49 3.63321e-49 5.41427e-49 7.96512e-49 1.15671e-48 1.65812e-48 2.3461e-48 3.27643e-48 4.51614e-48 6.14379e-48 8.24903e-48 1.09312e-47 1.42966e-47 1.84547e-47 2.35132e-47 2.95709e-47 3.67112e-47 4.49935e-47 5.4446e-47 6.50587e-47 7.67777e-47 8.95026e-47 1.03086e-46 1.17338e-46 1.32029e-46 1.46904e-46 1.61693e-46 1.76123e-46 1.89933e-46 2.02888e-46 2.1479e-46 2.25487e-46 2.34877e-46 2.42908e-46 2.49577e-46 2.54925e-46 2.59025e-46 2.61978e-46 2.63896e-46 2.64901e-46 2.65111e-46 2.64638e-46 2.63586e-46 2.62047e-46 2.60103e-46 2.57833e-46 2.55309e-46 2.52606e-46 2.49797e-46 2.46964e-46 2.44186e-46 2.41549e-46 2.39134e-46 2.37018e-46 2.35267e-46 2.33934e-46 2.33053e-46 2.32639e-46 2.32684e-46 2.33158e-46 2.34016e-46 2.35193e-46 2.36615e-46 2.38202e-46 2.39872e-46 2.41548e-46 2.4316e-46 2.44653e-46 2.45981e-46 2.47118e-46 2.48048e-46 2.48775e-46 2.4931e-46 2.49678e-46 2.49911e-46 2.50045e-46 2.50122e-46 2.50181e-46 2.50264e-46 2.50406e-46 2.5064e-46 2.50995e-46 2.51492e-46 2.52146e-46 2.52968e-46 2.5396e-46 2.55121e-46 2.56441e-46 2.57908e-46 2.59502e-46 2.612e-46 2.62975e-46 2.64795e-46 2.66625e-46 2.68427e-46 2.70162e-46 2.71788e-46 2.73264e-46 2.74552e-46 2.75614e-46 2.76419e-46 2.7694e-46 2.77158e-46 2.77063e-46 2.7665e-46 2.75925e-46 2.74896e-46 2.7358e-46 2.71992e-46 2.70149e-46 2.68064e-46 2.65744e-46 2.63189e-46 2.60389e-46 2.57327e-46 2.5397e-46 2.50281e-46 2.46211e-46 2.41707e-46 2.3671e-46 2.31161e-46 2.25004e-46 2.1819e-46 2.10683e-46 2.0246e-46 1.93519e-46 1.83883e-46 1.73597e-46 1.62737e-46 1.51402e-46 1.39716e-46 1.27823e-46 1.1588e-46 1.04051e-46 9.24983e-47 8.13777e-47 7.08279e-47 6.09661e-47 5.18839e-47 4.36438e-47 3.62794e-47 2.97958e-47 2.41733e-47 1.93702e-47 1.53284e-47 1.19779e-47 9.24155e-48 7.03984e-48 5.29435e-48 3.93078e-48 2.88105e-48 2.08461e-48 1.48903e-48 1.05e-48 7.30954e-49 5.02367e-49 3.40876e-49 2.28368e-49 1.51063e-49 9.86701e-50 6.36423e-50 4.05383e-50 2.55019e-50 1.58452e-50 9.72459e-51 5.89557e-51 3.53097e-51 2.08935e-51 1.22155e-51 7.05713e-52 4.02902e-52 2.27332e-52 1.26779e-52 6.98871e-53 3.80843e-53 2.05178e-53 1.09291e-53 5.75625e-54 2.99776e-54 1.54331e-54 7.84414e-55 3.91329e-55 1.86693e-55 7.45177e-56 0 
0 3.13846e-73 1.0601e-72 3.24863e-72 9.79065e-72 2.92474e-71 8.66686e-71 2.5477e-70 7.42899e-70 2.14874e-69 6.16432e-69 1.75393e-68 4.94929e-68 1.385e-67 3.84336e-67 1.05755e-66 2.88534e-66 7.80496e-66 2.09314e-65 5.56487e-65 1.4666e-64 3.8313e-64 9.92039e-64 2.54585e-63 6.47487e-63 1.63191e-62 4.07568e-62 1.00859e-61 2.4729e-61 6.00694e-61 1.44551e-60 3.44573e-60 8.13588e-60 1.90265e-59 4.40668e-59 1.01073e-58 2.29558e-58 5.16245e-58 1.14945e-57 2.53375e-57 5.52895e-57 1.19424e-56 2.55317e-56 5.40217e-56 1.13116e-55 2.34376e-55 4.80505e-55 9.74638e-55 1.95574e-54 3.88211e-54 7.62208e-54 1.4801e-53 2.8424e-53 5.39779e-53 1.01355e-52 1.88164e-52 3.45342e-52 6.26537e-52 1.12354e-51 1.99132e-51 3.48787e-51 6.03685e-51 1.03241e-50 1.74442e-50 2.91183e-50 4.80135e-50 7.81995e-50 1.25792e-49 1.99838e-49 3.13504e-49 4.85641e-49 7.42788e-49 1.12166e-48 1.67214e-48 2.46081e-48 3.57479e-48 5.12588e-48 7.25457e-48 1.01336e-47 1.39705e-47 1.90084e-47 2.55247e-47 3.38262e-47 4.42414e-47 5.71079e-47 7.27563e-47 9.149e-47 1.13562e-46 1.39152e-46 1.6834e-46 2.01087e-46 2.37218e-46 2.76411e-46 3.18201e-46 3.61989e-46 4.07059e-46 4.52616e-46 4.97815e-46 5.41813e-46 5.83806e-46 6.23074e-46 6.59016e-46 6.91173e-46 7.19245e-46 7.43094e-46 7.62731e-46 7.783e-46 7.90049e-46 7.98305e-46 8.03434e-46 8.05821e-46 8.05842e-46 8.03849e-46 8.00162e-46 7.95064e-46 7.88809e-46 7.81627e-46 7.73737e-46 7.65354e-46 7.56701e-46 7.48008e-46 7.39517e-46 7.31476e-46 7.24125e-46 7.17691e-46 7.12373e-46 7.08324e-46 7.05647e-46 7.04382e-46 7.04504e-46 7.05926e-46 7.08503e-46 7.12044e-46 7.16323e-46 7.21097e-46 7.26121e-46 7.31161e-46 7.36008e-46 7.4049e-46 7.44477e-46 7.47884e-46 7.50669e-46 7.52838e-46 7.54431e-46 7.5552e-46 7.56202e-46 7.56589e-46 7.56803e-46 7.56968e-46 7.57203e-46 7.5762e-46 7.58316e-46 7.59376e-46 7.60866e-46 7.62832e-46 7.65303e-46 7.6829e-46 7.71785e-46 7.75763e-46 7.80183e-46 7.84987e-46 7.90107e-46 7.95458e-46 8.00946e-46 8.06465e-46 8.11902e-46 8.17136e-46 8.22044e-46 8.26503e-46 8.30394e-46 8.33607e-46 8.36046e-46 8.37632e-46 8.38309e-46 8.38045e-46 8.3683e-46 8.34679e-46 8.31626e-46 8.27717e-46 8.23005e-46 8.17544e-46 8.11375e-46 8.04526e-46 7.96998e-46 7.88766e-46 7.79774e-46 7.69931e-46 7.59119e-46 7.4719e-46 7.33975e-46 7.19293e-46 7.02954e-46 6.84779e-46 6.64608e-46 6.42311e-46 6.17809e-46 5.91082e-46 5.62182e-46 5.31241e-46 4.98475e-46 4.64182e-46 4.28737e-46 3.92578e-46 3.56188e-46 3.20074e-46 2.84743e-46 2.50677e-46 2.18313e-46 1.88022e-46 1.60092e-46 1.34727e-46 1.12037e-46 9.20455e-47 7.46973e-47 5.98693e-47 4.73856e-47 3.70328e-47 2.85751e-47 2.17683e-47 1.63709e-47 1.2154e-47 8.90749e-48 6.44432e-48 4.60243e-48 3.24481e-48 2.25837e-48 1.55173e-48 1.05261e-48 7.04972e-49 4.66174e-49 3.04384e-49 1.96253e-49 1.24957e-49 7.85751e-50 4.87998e-50 2.99359e-50 1.81402e-50 1.08592e-50 6.42241e-51 3.75297e-51 2.16703e-51 1.23653e-51 6.97318e-52 3.88669e-52 2.14135e-52 1.16625e-52 6.2796e-53 3.34303e-53 1.75973e-53 9.15914e-54 4.71262e-54 2.39391e-54 1.19362e-54 5.6917e-55 2.27101e-55 0 
0 9.26772e-73 3.13123e-72 9.59858e-72 2.89377e-71 8.64745e-71 2.56339e-70 7.538e-70 2.19885e-69 6.36225e-69 1.8259e-68 5.19725e-68 1.46715e-67 4.10731e-67 1.14024e-66 3.13885e-66 8.56743e-66 2.31854e-65 6.22063e-65 1.65458e-64 4.36259e-64 1.1402e-63 2.95373e-63 7.58379e-63 1.92974e-62 4.86611e-62 1.21592e-61 3.01054e-61 7.3853e-61 1.79492e-60 4.32166e-60 1.03074e-59 2.43509e-59 5.69789e-59 1.32043e-58 3.03034e-58 6.88661e-58 1.54963e-57 3.45242e-57 7.61485e-57 1.66267e-56 3.59357e-56 7.68748e-56 1.6276e-55 3.4102e-55 7.07043e-55 1.45047e-54 2.94398e-54 5.91134e-54 1.17415e-53 2.30681e-53 4.48243e-53 8.61371e-53 1.63683e-52 3.07549e-52 5.71328e-52 1.04925e-51 1.90481e-51 3.41798e-51 6.06165e-51 1.06238e-50 1.83989e-50 3.14843e-50 5.32288e-50 8.89018e-50 1.46673e-49 2.39016e-49 3.84685e-49 6.11434e-49 9.59678e-49 1.48731e-48 2.27584e-48 3.4381e-48 5.12745e-48 7.54856e-48 1.09693e-47 1.57336e-47 2.22735e-47 3.11201e-47 4.29116e-47 5.83951e-47 7.84226e-47 1.03936e-46 1.35942e-46 1.75474e-46 2.23542e-46 2.81068e-46 3.48818e-46 4.27325e-46 5.16816e-46 6.17144e-46 7.27743e-46 8.47597e-46 9.75243e-46 1.10881e-45 1.24607e-45 1.38456e-45 1.52167e-45 1.65481e-45 1.78152e-45 1.89961e-45 2.00726e-45 2.10311e-45 2.18629e-45 2.25643e-45 2.31364e-45 2.35841e-45 2.39158e-45 2.4142e-45 2.42744e-45 2.43252e-45 2.43062e-45 2.42284e-45 2.41017e-45 2.39347e-45 2.3735e-45 2.35094e-45 2.32645e-45 2.30064e-45 2.27417e-45 2.24769e-45 2.22193e-45 2.19759e-45 2.17538e-45 2.15598e-45 2.13994e-45 2.12774e-45 2.11966e-45 2.11583e-45 2.11616e-45 2.12038e-45 2.12806e-45 2.13863e-45 2.1514e-45 2.16565e-45 2.18064e-45 2.19567e-45 2.21013e-45 2.22348e-45 2.23535e-45 2.24547e-45 2.25374e-45 2.26016e-45 2.26486e-45 2.26806e-45 2.27004e-45 2.27114e-45 2.27173e-45 2.27218e-45 2.27284e-45 2.27405e-45 2.2761e-45 2.27924e-45 2.28367e-45 2.28953e-45 2.29691e-45 2.30583e-45 2.31627e-45 2.32816e-45 2.34137e-45 2.35573e-45 2.37104e-45 2.38705e-45 2.40346e-45 2.41998e-45 2.43625e-45 2.45192e-45 2.46662e-45 2.47998e-45 2.49164e-45 2.50128e-45 2.50862e-45 2.51341e-45 2.51549e-45 2.51477e-45 2.51123e-45 2.50491e-45 2.49592e-45 2.48442e-45 2.47057e-45 2.45453e-45 2.43646e-45 2.41643e-45 2.39446e-45 2.3705e-45 2.34437e-45 2.31581e-45 2.28446e-45 2.24986e-45 2.2115e-45 2.16881e-45 2.1212e-45 2.06808e-45 2.00894e-45 1.94334e-45 1.871e-45 1.79181e-45 1.70589e-45 1.61359e-45 1.51554e-45 1.41262e-45 1.30596e-45 1.19687e-45 1.08684e-45 9.77421e-46 8.70174e-46 7.66595e-46 6.68044e-46 5.75679e-46 4.90417e-46 4.12903e-46 3.43501e-46 2.82305e-46 2.29164e-46 1.83716e-46 1.45435e-46 1.13675e-46 8.77212e-47 6.68278e-47 5.02578e-47 3.73104e-47 2.73418e-47 1.97786e-47 1.41232e-47 9.95522e-48 6.92717e-48 4.75843e-48 3.22693e-48 2.1605e-48 1.42818e-48 9.32167e-49 6.00784e-49 3.8237e-49 2.40336e-49 1.49195e-49 9.148e-50 5.54069e-50 3.31515e-50 1.95966e-50 1.14453e-50 6.60519e-51 3.76693e-51 2.12311e-51 1.1827e-51 6.51234e-52 3.54481e-52 1.90757e-52 1.01492e-52 5.33931e-53 2.77739e-53 1.4282e-53 7.25076e-54 3.61327e-54 1.72209e-54 6.8687e-55 0 
0 2.71469e-72 9.17442e-72 2.81327e-71 8.48429e-71 2.53625e-70 7.52095e-70 2.21245e-69 6.45616e-69 1.86876e-68 5.36525e-68 1.52777e-67 4.31454e-67 1.20836e-66 3.35597e-66 9.24224e-66 2.52376e-65 6.83288e-65 1.83409e-64 4.88062e-64 1.28747e-63 3.36653e-63 8.72537e-63 2.24137e-62 5.70619e-62 1.43963e-61 3.59918e-61 8.91605e-61 2.18841e-60 5.32164e-60 1.28201e-59 3.05939e-59 7.23184e-59 1.69317e-58 3.92607e-58 9.01553e-58 2.05006e-57 4.61588e-57 1.02901e-56 2.27105e-56 4.96187e-56 1.0731e-55 2.29709e-55 4.86656e-55 1.02032e-54 2.11684e-54 4.3455e-54 8.82577e-54 1.77334e-53 3.52468e-53 6.92945e-53 1.34738e-52 2.59094e-52 4.92676e-52 9.26321e-52 1.72195e-51 3.16446e-51 5.74854e-51 1.03218e-50 1.83171e-50 3.21233e-50 5.56679e-50 9.53177e-50 1.61245e-49 2.69468e-49 4.44832e-49 7.25295e-49 1.16796e-48 1.85737e-48 2.91671e-48 4.52247e-48 6.92333e-48 1.04635e-47 1.56112e-47 2.29912e-47 3.34217e-47 4.79525e-47 6.79034e-47 9.48963e-47 1.30879e-46 1.78133e-46 2.39255e-46 3.17117e-46 4.14784e-46 5.35396e-46 6.82013e-46 8.57421e-46 1.06392e-45 1.30308e-45 1.57552e-45 1.88073e-45 2.21689e-45 2.5808e-45 2.9679e-45 3.37238e-45 3.78738e-45 4.2053e-45 4.61815e-45 5.01802e-45 5.39741e-45 5.74973e-45 6.06952e-45 6.35278e-45 6.59701e-45 6.8013e-45 6.96613e-45 7.09325e-45 7.18537e-45 7.24586e-45 7.27847e-45 7.287e-45 7.27516e-45 7.24632e-45 7.2035e-45 7.14933e-45 7.08608e-45 7.01577e-45 6.94026e-45 6.86137e-45 6.78095e-45 6.70092e-45 6.62331e-45 6.55019e-45 6.48361e-45 6.4255e-45 6.37754e-45 6.34104e-45 6.31686e-45 6.30532e-45 6.30617e-45 6.31861e-45 6.34132e-45 6.37259e-45 6.41041e-45 6.45261e-45 6.49698e-45 6.54146e-45 6.5842e-45 6.62367e-45 6.65871e-45 6.68857e-45 6.71291e-45 6.73177e-45 6.74552e-45 6.75481e-45 6.7605e-45 6.7636e-45 6.76519e-45 6.76638e-45 6.76822e-45 6.7717e-45 6.77769e-45 6.78693e-45 6.8e-45 6.81733e-45 6.83916e-45 6.86558e-45 6.89652e-45 6.93176e-45 6.97093e-45 7.01354e-45 7.05896e-45 7.10645e-45 7.15517e-45 7.20419e-45 7.2525e-45 7.29904e-45 7.34271e-45 7.38242e-45 7.41712e-45 7.44583e-45 7.4677e-45 7.48206e-45 7.48842e-45 7.4865e-45 7.47627e-45 7.45787e-45 7.43167e-45 7.39811e-45 7.35775e-45 7.31111e-45 7.25865e-45 7.20065e-45 7.13722e-45 7.06817e-45 6.99304e-45 6.91106e-45 6.82113e-45 6.7219e-45 6.61178e-45 6.48899e-45 6.35168e-45 6.19803e-45 6.02634e-45 5.83518e-45 5.62356e-45 5.39102e-45 5.13775e-45 4.86473e-45 4.57373e-45 4.26733e-45 3.94887e-45 3.62233e-45 3.29217e-45 2.96314e-45 2.64002e-45 2.32741e-45 2.02951e-45 1.74993e-45 1.49154e-45 1.25637e-45 1.04562e-45 8.59638e-46 6.98024e-46 5.59724e-46 4.43175e-46 3.46442e-46 2.67366e-46 2.03693e-46 1.53186e-46 1.13716e-46 8.33259e-47 6.02685e-47 4.30285e-47 3.03238e-47 2.10953e-47 1.44869e-47 9.82138e-48 6.57348e-48 4.34378e-48 2.8341e-48 1.82585e-48 1.16157e-48 7.29772e-49 4.52816e-49 2.77513e-49 1.67998e-49 1.00466e-49 5.93565e-50 3.46483e-50 1.99848e-50 1.13909e-50 6.41647e-51 3.57231e-51 1.96588e-51 1.06944e-51 5.75154e-52 3.05829e-52 1.60793e-52 8.35909e-53 4.29586e-53 2.17964e-53 1.08556e-53 5.17114e-54 2.06177e-54 0 
0 7.88751e-72 2.66635e-71 8.17886e-71 2.46745e-70 7.37868e-70 2.18886e-69 6.4414e-69 1.88038e-68 5.44497e-68 1.56388e-67 4.45499e-67 1.25864e-66 3.52652e-66 9.79841e-66 2.69963e-65 7.37511e-65 1.99767e-64 5.36466e-64 1.42824e-63 3.76939e-63 9.8612e-63 2.5571e-62 6.57201e-62 1.674e-61 4.22561e-61 1.05699e-60 2.61985e-60 6.43389e-60 1.56543e-59 3.77334e-59 9.00992e-59 2.13103e-58 4.99227e-58 1.15829e-57 2.66144e-57 6.05565e-57 1.36433e-56 3.04339e-56 6.72115e-56 1.46941e-55 3.17996e-55 6.81153e-55 1.44403e-54 3.02958e-54 6.28964e-54 1.29202e-53 2.62591e-53 5.27977e-53 1.05012e-52 2.06594e-52 4.01984e-52 7.73523e-52 1.47189e-51 2.76931e-51 5.15142e-51 9.47325e-51 1.72207e-50 3.09413e-50 5.49446e-50 9.64206e-50 1.67199e-49 2.86468e-49 4.84907e-49 8.10852e-49 1.33933e-48 2.18502e-48 3.52054e-48 5.60162e-48 8.80099e-48 1.3653e-47 2.09108e-47 3.16175e-47 4.71917e-47 6.95278e-47 1.01106e-46 1.45112e-46 2.05545e-46 2.87325e-46 3.96356e-46 5.39551e-46 7.24779e-46 9.60729e-46 1.25666e-45 1.62206e-45 2.06613e-45 2.59722e-45 3.22217e-45 3.94558e-45 4.76915e-45 5.69106e-45 6.70553e-45 7.80257e-45 8.96808e-45 1.01841e-44 1.14297e-44 1.26816e-44 1.39155e-44 1.51073e-44 1.62346e-44 1.72773e-44 1.82195e-44 1.90494e-44 1.976e-44 2.0349e-44 2.08185e-44 2.11744e-44 2.14256e-44 2.15827e-44 2.16576e-44 2.16621e-44 2.16076e-44 2.15046e-44 2.13622e-44 2.11883e-44 2.09896e-44 2.0772e-44 2.05409e-44 2.03014e-44 2.00589e-44 1.98187e-44 1.95866e-44 1.93686e-44 1.91705e-44 1.89978e-44 1.88554e-44 1.87471e-44 1.86753e-44 1.86408e-44 1.86429e-44 1.86793e-44 1.87459e-44 1.88377e-44 1.89488e-44 1.90727e-44 1.9203e-44 1.93335e-44 1.94589e-44 1.95746e-44 1.96772e-44 1.97645e-44 1.98356e-44 1.98905e-44 1.99304e-44 1.99571e-44 1.99733e-44 1.9982e-44 1.99862e-44 1.99892e-44 1.99943e-44 2.00042e-44 2.00215e-44 2.00485e-44 2.00868e-44 2.01376e-44 2.02017e-44 2.02793e-44 2.03703e-44 2.04739e-44 2.05891e-44 2.07145e-44 2.08481e-44 2.09879e-44 2.11314e-44 2.12757e-44 2.1418e-44 2.15551e-44 2.16838e-44 2.18009e-44 2.19033e-44 2.19881e-44 2.20529e-44 2.20956e-44 2.21148e-44 2.21098e-44 2.20806e-44 2.20275e-44 2.19518e-44 2.18548e-44 2.17383e-44 2.16039e-44 2.14531e-44 2.12869e-44 2.11055e-44 2.09087e-44 2.06951e-44 2.04624e-44 2.02074e-44 1.9926e-44 1.96134e-44 1.92642e-44 1.88726e-44 1.84328e-44 1.79394e-44 1.73878e-44 1.67746e-44 1.60979e-44 1.53579e-44 1.45572e-44 1.37006e-44 1.27958e-44 1.18525e-44 1.08826e-44 9.89955e-45 8.91761e-45 7.95137e-45 7.01488e-45 6.12104e-45 5.28098e-45 4.5036e-45 3.79533e-45 3.15998e-45 2.59885e-45 2.11088e-45 1.69306e-45 1.34077e-45 1.04825e-45 8.09055e-46 6.16399e-46 4.63554e-46 3.44097e-46 2.52114e-46 1.82325e-46 1.30148e-46 9.17009e-47 6.37777e-47 4.37864e-47 2.96757e-47 1.98554e-47 1.31157e-47 8.55402e-48 5.50858e-48 3.50292e-48 2.19975e-48 1.36427e-48 8.35696e-49 5.05647e-49 3.02228e-49 1.78463e-49 1.04117e-49 6.00198e-50 3.41904e-50 1.92481e-50 1.07099e-50 5.89021e-51 3.20234e-51 1.7212e-51 9.14657e-52 4.80596e-52 2.49691e-52 1.28241e-52 6.50271e-53 3.23674e-53 1.54104e-53 6.14187e-54 0 
0 2.27305e-71 7.68614e-71 2.35847e-70 7.11768e-70 2.12926e-69 6.31871e-69 1.86018e-68 5.43239e-68 1.57366e-67 4.52162e-67 1.2886e-66 3.64214e-66 1.02091e-65 2.83783e-65 7.82222e-65 2.13792e-64 5.7936e-64 1.55659e-63 4.14612e-63 1.09478e-62 2.86551e-62 7.43433e-62 1.91169e-61 4.87196e-61 1.23047e-60 3.07959e-60 7.63727e-60 1.87664e-59 4.56866e-59 1.10188e-58 2.63261e-58 6.23038e-58 1.46046e-57 3.3906e-57 7.79553e-57 1.77486e-56 4.0013e-56 8.93145e-56 1.97375e-55 4.31797e-55 9.3508e-55 2.00431e-54 4.25199e-54 8.92679e-54 1.85455e-53 3.81228e-53 7.75347e-53 1.56004e-52 3.10504e-52 6.11294e-52 1.19027e-51 2.29202e-51 4.3644e-51 8.21726e-51 1.52963e-50 2.81488e-50 5.12047e-50 9.20652e-50 1.63597e-49 2.87284e-49 4.98496e-49 8.54644e-49 1.44758e-48 2.42212e-48 4.00317e-48 6.53475e-48 1.05349e-47 1.67716e-47 2.63648e-47 4.09205e-47 6.27037e-47 9.48522e-47 1.41635e-46 2.08755e-46 3.0368e-46 4.35997e-46 6.17756e-46 8.63766e-46 1.1918e-45 1.62266e-45 2.18002e-45 2.88997e-45 3.78032e-45 4.87948e-45 6.21494e-45 7.81157e-45 9.68955e-45 1.18623e-44 1.43341e-44 1.7099e-44 2.01386e-44 2.34221e-44 2.6906e-44 3.05356e-44 3.42468e-44 3.79692e-44 4.16293e-44 4.51546e-44 4.84777e-44 5.15395e-44 5.42924e-44 5.67025e-44 5.87502e-44 6.04307e-44 6.17521e-44 6.2734e-44 6.34045e-44 6.37976e-44 6.395e-44 6.38985e-44 6.36783e-44 6.33209e-44 6.2854e-44 6.2301e-44 6.16818e-44 6.10135e-44 6.03112e-44 5.95895e-44 5.88632e-44 5.81476e-44 5.74588e-44 5.68136e-44 5.62286e-44 5.57195e-44 5.53001e-44 5.4981e-44 5.47692e-44 5.46671e-44 5.46722e-44 5.47773e-44 5.49711e-44 5.52384e-44 5.5562e-44 5.59229e-44 5.63024e-44 5.66824e-44 5.70472e-44 5.73835e-44 5.76815e-44 5.79348e-44 5.81405e-44 5.82991e-44 5.84137e-44 5.84902e-44 5.85359e-44 5.85595e-44 5.85705e-44 5.85781e-44 5.85917e-44 5.86197e-44 5.86695e-44 5.87474e-44 5.88585e-44 5.90063e-44 5.91929e-44 5.94192e-44 5.96844e-44 5.99868e-44 6.0323e-44 6.06889e-44 6.1079e-44 6.14872e-44 6.19061e-44 6.23277e-44 6.27434e-44 6.31441e-44 6.35204e-44 6.38629e-44 6.41626e-44 6.44111e-44 6.46012e-44 6.47272e-44 6.47851e-44 6.47726e-44 6.46897e-44 6.45381e-44 6.43213e-44 6.40437e-44 6.37106e-44 6.33272e-44 6.2898e-44 6.24262e-44 6.19134e-44 6.13586e-44 6.0758e-44 6.01053e-44 5.93909e-44 5.86026e-44 5.7726e-44 5.67443e-44 5.56398e-44 5.43948e-44 5.29919e-44 5.14162e-44 4.96563e-44 4.77054e-44 4.55626e-44 4.32344e-44 4.07344e-44 3.80841e-44 3.53122e-44 3.2454e-44 2.95493e-44 2.66412e-44 2.37735e-44 2.0989e-44 1.8327e-44 1.58214e-44 1.34998e-44 1.13822e-44 9.48075e-45 7.79999e-45 6.33734e-45 5.08417e-45 4.02701e-45 3.14886e-45 2.43053e-45 1.85182e-45 1.39262e-45 1.03368e-45 7.57283e-46 5.4758e-46 3.90803e-46 2.75296e-46 1.9142e-46 1.31381e-46 8.90137e-47 5.95364e-47 3.93129e-47 2.56294e-47 1.64977e-47 1.04863e-47 6.58203e-48 4.08015e-48 2.49805e-48 1.51068e-48 9.02458e-49 5.32598e-49 3.10547e-49 1.78916e-49 1.0186e-49 5.73094e-50 3.18683e-50 1.75162e-50 9.51714e-51 5.1121e-51 2.7149e-51 1.42561e-51 7.402e-52 3.79924e-52 1.92528e-52 9.57735e-53 4.55741e-53 1.81566e-53 0 