# vtk DataFile Version 3.0
Gray-Scott Simulation Output
ASCII
DATASET STRUCTURED_POINTS
DIMENSIONS 256 256 1
SPACING 1.0 1.0 1.0
ORIGIN 0 0 0
POINT_DATA 65536
SCALARS u double
LOOKUP_TABLE default
0 0 0 0 0 0 0 0 0 0 0 0 0 0 0 0 0 0 0 0 0 0 0 0 0 0 0 0 0 0 0 0 0 0 0 0 0 0 0 0 0 0 0 0 0 0 0 0 0 0 0 0 0 0 0 0 0 0 0 0 0 0 0 0 0 0 0 0 0 0 0 0 0 0 0 0 0 0 0 0 0 0 0 0 0 0 0 0 0 0 0 0 0 0 0 0 0 0 0 0 0 0 0 0 0 0 0 0 0 0 0 0 0 0 0 0 0 0 0 0 0 0 0 0 0 0 0 0 0 0 0 0 0 0 0 0 0 0 0 0 0 0 0 0 0 0 0 0 0 0 0 0 0 0 0 0 0 0 0 0 0 0 0 0 0 0 0 0 0 0 0 0 0 0 0 0 0 0 0 0 0 0 0 0 0 0 0 0 0 0 0 0 0 0 0 0 0 0 0 0 0 0 0 0 0 0 0 0 0 0 0 0 0 0 0 0 0 0 0 0 0 0 0 0 0 0 0 0 0 0 0 0 0 0 0 0 0 0 0 0 0 0 0 0 0 0 0 0 0 0 0 0 0 0 0 0 
0 2.23387e-81 8.76944e-81 3.19741e-80 1.15055e-79 4.10311e-79 1.45052e-78 5.083e-78 1.76553e-77 6.07799e-77 2.07371e-76 7.01143e-76 2.34914e-75 7.79873e-75 2.5652e-74 8.35931e-74 2.69861e-73 8.62977e-73 2.73347e-72 8.57541e-72 2.66432e-71 8.19742e-71 2.49742e-70 7.53349e-70 2.24986e-69 6.65176e-69 1.94671e-68 5.63916e-68 1.61674e-67 4.58711e-67 1.28788e-66 3.57776e-66 9.83346e-66 2.67376e-65 7.19152e-65 1.9132e-64 5.03383e-64 1.30978e-63 3.36987e-63 8.57243e-63 2.15589e-62 5.35969e-62 1.31703e-61 3.19857e-61 7.67662e-61 1.82052e-60 4.26565e-60 9.87402e-60 2.25774e-59 5.09894e-59 1.13727e-58 2.50481e-58 5.44711e-58 1.16948e-57 2.47856e-57 5.1849e-57 1.07045e-56 2.18086e-56 4.38402e-56 8.69468e-56 1.70106e-55 3.28262e-55 6.24752e-55 1.17255e-54 2.16991e-54 3.95904e-54 7.12082e-54 1.26245e-53 2.20594e-53 3.79861e-53 6.44559e-53 1.07762e-52 1.77498e-52 2.88007e-52 4.6032e-52 7.24652e-52 1.12351e-51 1.71545e-51 2.57932e-51 3.81887e-51 5.56739e-51 7.99177e-51 1.12954e-50 1.57191e-50 2.15392e-50 2.90613e-50 3.8611e-50 5.05181e-50 6.50976e-50 8.2626e-50 1.03316e-49 1.27292e-49 1.54563e-49 1.85009e-49 2.18369e-49 2.54242e-49 2.92097e-49 3.31299e-49 3.71136e-49 4.10864e-49 4.49745e-49 4.8709e-49 5.22293e-49 5.54862e-49 5.8443e-49 6.10762e-49 6.33745e-49 6.53374e-49 6.69724e-49 6.82928e-49 6.9315e-49 7.00567e-49 7.05352e-49 7.07672e-49 7.07691e-49 7.05573e-49 7.01505e-49 6.95703e-49 6.8843e-49 6.80005e-49 6.70799e-49 6.61232e-49 6.51756e-49 6.42831e-49 6.34898e-49 6.28347e-49 6.23493e-49 6.2055e-49 6.19614e-49 6.20663e-49 6.23559e-49 6.28063e-49 6.33855e-49 6.40568e-49 6.4781e-49 6.55199e-49 6.62384e-49 6.69068e-49 6.7502e-49 6.80081e-49 6.84169e-49 6.87269e-49 6.89427e-49 6.9074e-49 6.91342e-49 6.91393e-49 6.91064e-49 6.90532e-49 6.89968e-49 6.89532e-49 6.89366e-49 6.89593e-49 6.90313e-49 6.916e-49 6.93507e-49 6.96062e-49 6.99268e-49 7.03109e-49 7.0755e-49 7.12536e-49 7.17998e-49 7.23856e-49 7.30014e-49 7.36367e-49 7.42799e-49 7.49181e-49 7.55375e-49 7.61231e-49 7.66592e-49 7.71299e-49 7.75198e-49 7.78143e-49 7.80015e-49 7.80719e-49 7.80202e-49 7.78445e-49 7.75469e-49 7.71326e-49 7.66089e-49 7.59837e-49 7.52641e-49 7.44547e-49 7.3557e-49 7.25681e-49 7.14806e-49 7.02835e-49 6.89625e-49 6.75016e-49 6.58845e-49 6.4096e-49 6.21236e-49 5.99585e-49 5.75968e-49 5.504e-49 5.22955e-49 4.93769e-49 4.63041e-49 4.3103e-49 3.98052e-49 3.64471e-49 3.30693e-49 2.97148e-49 2.64278e-49 2.32514e-49 2.02257e-49 1.73864e-49 1.47626e-49 1.23758e-49 1.02392e-49 8.3578e-50 6.72835e-50 5.34065e-50 4.17872e-50 3.22229e-50 2.4484e-50 1.83287e-50 1.35164e-50 9.81818e-51 7.02445e-51 4.94977e-51 3.43507e-51 2.34779e-51 1.58038e-51 1.04772e-51 6.84117e-52 4.39978e-52 2.78723e-52 1.73932e-52 1.06927e-52 6.4762e-53 3.86475e-53 2.27261e-53 1.31696e-53 7.52152e-54 4.23416e-54 2.34964e-54 1.28544e-54 6.93377e-55 3.68805e-55 1.93457e-55 1.00087e-55 5.10776e-56 2.57149e-56 1.2773e-56 6.26045e-57 3.02809e-57 1.44555e-57 6.81153e-58 3.16849e-58 1.45512e-58 6.59754e-59 2.95192e-59 1.29932e-59 5.52486e-60 2.02117e-60 0 
0 8.75369e-81 3.43681e-80 1.25326e-79 4.51039e-79 1.60874e-78 5.68804e-78 1.99355e-77 6.92555e-77 2.38458e-76 8.13719e-76 2.75177e-75 9.22132e-75 3.06189e-74 1.00733e-73 3.28327e-73 1.06014e-72 3.3909e-72 1.0743e-71 3.37101e-71 1.04758e-70 3.22388e-70 9.82419e-70 2.96419e-69 8.85471e-69 2.61857e-68 7.66553e-68 2.22111e-67 6.36961e-67 1.80773e-66 5.07682e-66 1.41076e-65 3.8786e-65 1.05493e-64 2.83826e-64 7.55311e-64 1.98794e-63 5.17418e-63 1.33168e-62 3.38872e-62 8.52522e-62 2.12015e-61 5.21166e-61 1.26616e-60 3.0399e-60 7.21177e-60 1.69041e-59 3.91437e-59 8.95376e-59 2.02291e-58 4.51362e-58 9.94499e-58 2.16354e-57 4.64687e-57 9.85233e-57 2.06183e-56 4.25844e-56 8.67926e-56 1.74542e-55 3.46301e-55 6.77783e-55 1.30847e-54 2.49126e-54 4.67746e-54 8.65939e-54 1.58052e-53 2.84382e-53 5.04365e-53 8.81618e-53 1.51867e-52 2.57781e-52 4.3112e-52 7.10335e-52 1.15294e-51 1.84328e-51 2.90256e-51 4.50136e-51 6.87464e-51 1.03389e-50 1.53106e-50 2.23249e-50 3.20517e-50 4.53076e-50 6.3059e-50 8.64141e-50 1.166e-49 1.5492e-49 2.02696e-49 2.61186e-49 3.31495e-49 4.14467e-49 5.10586e-49 6.19878e-49 7.41845e-49 8.75423e-49 1.01898e-48 1.17038e-48 1.32705e-48 1.48613e-48 1.64464e-48 1.7996e-48 1.94828e-48 2.08826e-48 2.21758e-48 2.33482e-48 2.43906e-48 2.52988e-48 2.60729e-48 2.67163e-48 2.72347e-48 2.76347e-48 2.79237e-48 2.81087e-48 2.81964e-48 2.81934e-48 2.81062e-48 2.79422e-48 2.77098e-48 2.74195e-48 2.70838e-48 2.67174e-48 2.63368e-48 2.596e-48 2.56052e-48 2.52899e-48 2.50296e-48 2.48367e-48 2.47198e-48 2.46826e-48 2.47243e-48 2.48393e-48 2.50182e-48 2.52482e-48 2.55147e-48 2.58021e-48 2.60953e-48 2.63804e-48 2.66454e-48 2.68814e-48 2.70819e-48 2.72437e-48 2.73663e-48 2.74515e-48 2.75032e-48 2.75266e-48 2.75282e-48 2.75148e-48 2.74934e-48 2.74707e-48 2.74531e-48 2.74463e-48 2.74551e-48 2.74835e-48 2.75344e-48 2.761e-48 2.77112e-48 2.78383e-48 2.79906e-48 2.81667e-48 2.83645e-48 2.85812e-48 2.88136e-48 2.90579e-48 2.931e-48 2.95653e-48 2.98187e-48 3.00646e-48 3.02971e-48 3.05101e-48 3.06971e-48 3.0852e-48 3.09692e-48 3.10437e-48 3.10719e-48 3.10517e-48 3.09822e-48 3.08644e-48 3.07003e-48 3.0493e-48 3.02454e-48 2.99606e-48 2.96405e-48 2.92855e-48 2.88946e-48 2.8465e-48 2.79923e-48 2.74707e-48 2.68938e-48 2.62553e-48 2.55488e-48 2.47695e-48 2.39135e-48 2.29793e-48 2.19671e-48 2.08798e-48 1.97225e-48 1.8503e-48 1.72313e-48 1.59199e-48 1.45832e-48 1.32375e-48 1.18997e-48 1.05877e-48 9.31874e-49 8.10906e-49 6.97304e-49 5.92252e-49 4.96632e-49 4.10993e-49 3.35543e-49 2.70172e-49 2.14479e-49 1.67834e-49 1.29429e-49 9.83479e-50 7.36236e-50 5.42922e-50 3.94353e-50 2.82119e-50 1.98774e-50 1.37928e-50 9.42564e-51 6.3436e-51 4.20471e-51 2.7449e-51 1.76493e-51 1.11779e-51 6.97354e-52 4.28585e-52 2.59505e-52 1.54816e-52 9.10086e-53 5.27218e-53 3.01008e-53 1.69392e-53 9.39671e-54 5.13895e-54 2.771e-54 1.47335e-54 7.72567e-55 3.9955e-55 2.03827e-55 1.02578e-55 5.09334e-56 2.49547e-56 1.20657e-56 5.75779e-57 2.71211e-57 1.26112e-57 5.78949e-58 2.62402e-58 1.17363e-58 5.16407e-59 2.19512e-59 8.02847e-60 0 
0 3.18508e-80 1.25068e-79 4.56143e-79 1.6419e-78 5.85725e-78 2.07133e-77 7.26097e-77 2.52292e-76 8.68855e-76 2.96549e-75 1.00305e-74 3.362e-74 1.11658e-73 3.67425e-73 1.19786e-72 3.86871e-72 1.23772e-71 3.92228e-71 1.23108e-70 3.82674e-70 1.17797e-69 3.59064e-69 1.08369e-68 3.23815e-68 9.57889e-68 2.80494e-67 8.1299e-67 2.33219e-66 6.621e-66 1.86005e-65 5.17048e-65 1.42201e-64 3.86901e-64 1.04132e-63 2.77214e-63 7.29881e-63 1.90044e-62 4.89302e-62 1.24561e-61 3.13489e-61 7.79933e-61 1.91797e-60 4.66158e-60 1.11966e-59 2.65736e-59 6.23141e-59 1.44359e-58 3.30353e-58 7.4669e-58 1.6668e-57 3.67415e-57 7.99678e-57 1.71833e-56 3.64489e-56 7.63128e-56 1.57687e-55 3.21535e-55 6.46914e-55 1.2841e-54 2.51441e-54 4.85631e-54 9.2504e-54 1.73759e-53 3.21824e-53 5.87657e-53 1.05783e-52 1.8769e-52 3.28215e-52 5.65614e-52 9.60461e-52 1.60692e-51 2.64863e-51 4.30051e-51 6.87784e-51 1.08338e-50 1.68065e-50 2.56748e-50 3.8623e-50 5.72097e-50 8.34372e-50 1.19813e-49 1.69392e-49 2.35791e-49 3.23154e-49 4.36066e-49 5.794e-49 7.58083e-49 9.76807e-49 1.23967e-48 1.54979e-48 1.90893e-48 2.31713e-48 2.77245e-48 3.27083e-48 3.80611e-48 4.3702e-48 4.95344e-48 5.54509e-48 6.13397e-48 6.70901e-48 7.25999e-48 7.77798e-48 8.25578e-48 8.68815e-48 9.07183e-48 9.40541e-48 9.68908e-48 9.92424e-48 1.01131e-47 1.02583e-47 1.03627e-47 1.04288e-47 1.04593e-47 1.04565e-47 1.04229e-47 1.03612e-47 1.02745e-47 1.01666e-47 1.0042e-47 9.90625e-48 9.76534e-48 9.6259e-48 9.49463e-48 9.378e-48 9.28173e-48 9.2104e-48 9.16716e-48 9.15341e-48 9.16881e-48 9.21133e-48 9.27742e-48 9.3624e-48 9.46085e-48 9.56701e-48 9.67527e-48 9.78047e-48 9.87827e-48 9.96526e-48 1.00392e-47 1.00987e-47 1.01438e-47 1.01751e-47 1.0194e-47 1.02025e-47 1.02029e-47 1.01977e-47 1.01897e-47 1.01812e-47 1.01746e-47 1.0172e-47 1.01751e-47 1.01855e-47 1.02043e-47 1.02321e-47 1.02694e-47 1.03163e-47 1.03725e-47 1.04375e-47 1.05105e-47 1.05904e-47 1.06762e-47 1.07664e-47 1.08595e-47 1.09538e-47 1.10474e-47 1.11382e-47 1.12241e-47 1.13029e-47 1.1372e-47 1.14293e-47 1.14727e-47 1.15003e-47 1.15109e-47 1.15035e-47 1.14779e-47 1.14346e-47 1.13741e-47 1.12978e-47 1.12066e-47 1.11018e-47 1.0984e-47 1.08535e-47 1.07099e-47 1.05521e-47 1.03786e-47 1.01871e-47 9.97543e-48 9.74104e-48 9.48167e-48 9.19539e-48 8.8808e-48 8.53718e-48 8.16458e-48 7.76395e-48 7.3371e-48 6.88681e-48 6.41673e-48 5.93143e-48 5.43621e-48 4.93704e-48 4.44031e-48 3.95262e-48 3.48045e-48 3.02993e-48 2.60648e-48 2.21459e-48 1.85763e-48 1.53773e-48 1.25573e-48 1.01129e-48 8.02952e-49 6.284e-49 4.84644e-49 3.68278e-49 2.75696e-49 2.03301e-49 1.47659e-49 1.05625e-49 7.44115e-50 5.1626e-50 3.52735e-50 2.37347e-50 1.57285e-50 1.02652e-50 6.59858e-51 4.17789e-51 2.60565e-51 1.60088e-51 9.68993e-52 5.77878e-52 3.39583e-52 1.96648e-52 1.1223e-52 6.31324e-53 3.50074e-53 1.91373e-53 1.03148e-53 5.48215e-54 2.8734e-54 1.4854e-54 7.5744e-55 3.81026e-55 1.8911e-55 9.26138e-56 4.47599e-56 2.13503e-56 1.00524e-56 4.6723e-57 2.14403e-57 9.71345e-58 4.34268e-58 1.91003e-58 8.11605e-59 2.96753e-59 0 
0 1.14368e-79 4.49153e-79 1.63841e-78 5.89855e-78 2.10461e-77 7.44404e-77 2.60999e-76 9.07056e-76 3.1244e-75 1.06662e-74 3.60852e-74 1.20976e-73 4.01875e-73 1.32273e-72 4.31334e-72 1.39342e-71 4.45911e-71 1.41344e-70 4.43753e-70 1.37976e-69 4.24847e-69 1.29537e-68 3.91069e-68 1.1689e-67 3.45883e-67 1.01315e-66 2.93749e-66 8.42943e-66 2.39389e-65 6.72751e-65 1.87073e-64 5.14682e-64 1.40086e-63 3.77173e-63 1.00447e-62 2.64569e-62 6.89146e-62 1.77504e-61 4.52052e-61 1.13817e-60 2.83286e-60 6.96939e-60 1.69462e-59 4.07206e-59 9.6688e-59 2.26831e-58 5.25724e-58 1.20362e-57 2.72178e-57 6.07853e-57 1.34053e-56 2.91905e-56 6.2754e-56 1.33176e-55 2.78965e-55 5.76709e-55 1.17652e-54 2.36826e-54 4.70318e-54 9.21379e-54 1.7804e-53 3.39296e-53 6.37635e-53 1.18153e-52 2.1585e-52 3.88724e-52 6.90024e-52 1.20718e-51 2.08123e-51 3.53559e-51 5.9177e-51 9.75775e-51 1.58494e-50 2.53572e-50 3.99558e-50 6.20033e-50 9.47492e-50 1.42572e-49 2.11236e-49 3.08146e-49 4.42576e-49 6.25823e-49 8.71256e-49 1.19419e-48 1.61158e-48 2.14138e-48 2.80178e-48 3.61004e-48 4.58119e-48 5.72662e-48 7.05261e-48 8.55909e-48 1.02386e-47 1.20759e-47 1.40478e-47 1.61242e-47 1.82692e-47 2.0443e-47 2.26041e-47 2.47117e-47 2.67283e-47 2.86212e-47 3.03641e-47 3.19383e-47 3.33323e-47 3.45415e-47 3.55672e-47 3.6415e-47 3.70936e-47 3.76132e-47 3.79843e-47 3.82169e-47 3.83205e-47 3.83039e-47 3.81761e-47 3.79466e-47 3.76268e-47 3.72303e-47 3.67738e-47 3.62768e-47 3.57615e-47 3.52518e-47 3.47722e-47 3.43461e-47 3.39944e-47 3.37339e-47 3.3576e-47 3.35258e-47 3.3582e-47 3.37372e-47 3.39783e-47 3.42884e-47 3.46476e-47 3.50348e-47 3.54295e-47 3.58129e-47 3.61692e-47 3.64859e-47 3.67548e-47 3.69714e-47 3.71351e-47 3.72483e-47 3.73165e-47 3.73467e-47 3.73475e-47 3.73282e-47 3.72983e-47 3.72668e-47 3.72423e-47 3.72324e-47 3.72436e-47 3.72812e-47 3.73493e-47 3.74505e-47 3.75864e-47 3.77571e-47 3.79618e-47 3.81986e-47 3.84646e-47 3.87561e-47 3.90688e-47 3.93977e-47 3.97371e-47 4.00809e-47 4.04223e-47 4.07537e-47 4.10673e-47 4.13547e-47 4.16072e-47 4.18166e-47 4.19752e-47 4.20764e-47 4.21152e-47 4.20887e-47 4.1996e-47 4.18383e-47 4.16186e-47 4.13408e-47 4.10095e-47 4.06286e-47 4.02009e-47 3.97272e-47 3.92062e-47 3.86342e-47 3.80053e-47 3.73117e-47 3.65449e-47 3.56958e-47 3.47559e-47 3.37179e-47 3.25766e-47 3.1329e-47 2.99751e-47 2.85177e-47 2.69634e-47 2.53218e-47 2.3606e-47 2.18325e-47 2.00205e-47 1.81919e-47 1.63701e-47 1.45794e-47 1.28439e-47 1.11863e-47 9.62691e-48 8.18253e-48 6.86593e-48 5.68521e-48 4.64381e-48 3.74061e-48 2.9705e-48 2.32503e-48 1.7933e-48 1.36278e-48 1.0202e-48 7.52277e-49 5.4635e-49 3.90782e-49 2.75265e-49 1.90945e-49 1.30439e-49 8.77505e-50 5.81362e-50 3.79327e-50 2.43765e-50 1.54293e-50 9.61976e-51 5.90825e-51 3.5749e-51 2.13117e-51 1.25187e-51 7.24657e-52 4.13406e-52 2.32455e-52 1.28844e-52 7.04039e-53 3.79305e-53 2.01505e-53 1.05569e-53 5.45494e-54 2.78034e-54 1.398e-54 6.93537e-55 3.39496e-55 1.64002e-55 7.81931e-56 3.67991e-56 1.70964e-56 7.8417e-57 3.55108e-57 1.58692e-57 6.97674e-58 2.96338e-58 1.08319e-58 0 
0 4.06982e-79 1.59856e-78 5.83221e-78 2.10007e-77 7.4945e-77 2.65133e-76 9.29782e-76 3.23196e-75 1.1135e-74 3.80212e-74 1.2866e-73 4.31435e-73 1.43354e-72 4.7195e-72 1.53938e-71 4.97422e-71 1.59222e-70 5.04837e-70 1.58538e-69 4.93082e-69 1.51871e-68 4.63195e-68 1.3988e-67 4.18229e-67 1.23795e-66 3.62736e-66 1.05205e-65 3.01999e-65 8.57949e-65 2.41194e-64 6.70936e-64 1.84658e-63 5.0279e-63 1.35425e-62 3.60798e-62 9.50693e-62 2.47735e-61 6.38357e-61 1.62639e-60 4.09666e-60 1.02008e-59 2.5107e-59 6.10755e-59 1.46826e-58 3.48788e-58 8.18639e-58 1.89824e-57 4.348e-57 9.83695e-57 2.19794e-56 4.8496e-56 1.05653e-55 2.27247e-55 4.82502e-55 1.0112e-54 2.09152e-54 4.26898e-54 8.59747e-54 1.70825e-53 3.34823e-53 6.47308e-53 1.2342e-52 2.32057e-52 4.30209e-52 7.86313e-52 1.41674e-51 2.51603e-51 4.40375e-51 7.59564e-51 1.29091e-50 2.16157e-50 3.56568e-50 5.79396e-50 9.27314e-50 1.46171e-49 2.26903e-49 3.46846e-49 5.22061e-49 7.73695e-49 1.12892e-48 1.62175e-48 2.29364e-48 3.19361e-48 4.37785e-48 5.90841e-48 7.85113e-48 1.02725e-47 1.32354e-47 1.67947e-47 2.09914e-47 2.58479e-47 3.13629e-47 3.75082e-47 4.42264e-47 5.14319e-47 5.9013e-47 6.6837e-47 7.47575e-47 8.26222e-47 9.02823e-47 9.76004e-47 1.04458e-46 1.10761e-46 1.16442e-46 1.21461e-46 1.25804e-46 1.29478e-46 1.32505e-46 1.3492e-46 1.3676e-46 1.38065e-46 1.38873e-46 1.39218e-46 1.39133e-46 1.3865e-46 1.37803e-46 1.36633e-46 1.35189e-46 1.33529e-46 1.31725e-46 1.29857e-46 1.28009e-46 1.26271e-46 1.24728e-46 1.23454e-46 1.2251e-46 1.21938e-46 1.21757e-46 1.2196e-46 1.22522e-46 1.23394e-46 1.24516e-46 1.25815e-46 1.27215e-46 1.28642e-46 1.30028e-46 1.31314e-46 1.32458e-46 1.33428e-46 1.34209e-46 1.34797e-46 1.35204e-46 1.35448e-46 1.35554e-46 1.35554e-46 1.35482e-46 1.35372e-46 1.35256e-46 1.35166e-46 1.35129e-46 1.35168e-46 1.35303e-46 1.35548e-46 1.35914e-46 1.36404e-46 1.3702e-46 1.3776e-46 1.38615e-46 1.39576e-46 1.4063e-46 1.4176e-46 1.42949e-46 1.44176e-46 1.45419e-46 1.46654e-46 1.47853e-46 1.48988e-46 1.50028e-46 1.50943e-46 1.51701e-46 1.52276e-46 1.52643e-46 1.52785e-46 1.52691e-46 1.52358e-46 1.51789e-46 1.50997e-46 1.49996e-46 1.48802e-46 1.4743e-46 1.4589e-46 1.44186e-46 1.42313e-46 1.40257e-46 1.37998e-46 1.35508e-46 1.32756e-46 1.29707e-46 1.26331e-46 1.22602e-46 1.18499e-46 1.14009e-46 1.09133e-46 1.03879e-46 9.82681e-47 9.23354e-47 8.61269e-47 7.97012e-47 7.31278e-47 6.64856e-47 5.98599e-47 5.33398e-47 4.70136e-47 4.09651e-47 3.52695e-47 2.99894e-47 2.51727e-47 2.08502e-47 1.70353e-47 1.3725e-47 1.09012e-47 8.53355e-48 6.5825e-48 5.00245e-48 3.74492e-48 2.76136e-48 2.00533e-48 1.43418e-48 1.01009e-48 7.00562e-49 4.78475e-49 3.21813e-49 2.13153e-49 1.3904e-49 8.93239e-50 5.65201e-50 3.52269e-50 2.16279e-50 1.30816e-50 7.79554e-51 4.57736e-51 2.64855e-51 1.51032e-51 8.48874e-52 4.70302e-52 2.56872e-52 1.38328e-52 7.3453e-53 3.84645e-53 1.98661e-53 1.01208e-53 5.08654e-54 2.5222e-54 1.23407e-54 5.95872e-55 2.83966e-55 1.33577e-55 6.20294e-56 2.84383e-56 1.28723e-56 5.74979e-57 2.52673e-57 1.0728e-57 3.92015e-58 0 
0 1.43561e-78 5.6397e-78 2.05797e-77 7.41177e-77 2.64554e-76 9.36101e-76 3.28344e-75 1.14158e-74 3.93391e-74 1.34356e-73 4.54754e-73 1.52528e-72 5.06932e-72 1.66934e-71 5.44634e-71 1.76035e-70 5.63632e-70 1.78757e-69 5.61525e-69 1.74695e-68 5.38226e-68 1.64205e-67 4.96038e-67 1.48358e-66 4.39283e-66 1.28758e-65 3.73569e-65 1.07273e-64 3.04861e-64 8.57364e-64 2.38584e-63 6.56891e-63 1.78929e-62 4.8213e-62 1.285e-61 3.38734e-61 8.83053e-61 2.27639e-60 5.80225e-60 1.46215e-59 3.64242e-59 8.96907e-59 2.18282e-58 5.24998e-58 1.24773e-57 2.92994e-57 6.79716e-57 1.55768e-56 3.52585e-56 7.88198e-56 1.73998e-55 3.79264e-55 8.16165e-55 1.73381e-54 3.63551e-54 7.52342e-54 1.53639e-53 3.09581e-53 6.15432e-53 1.20689e-52 2.33447e-52 4.45336e-52 8.37752e-52 1.55389e-51 2.84153e-51 5.12225e-51 9.10115e-51 1.59371e-50 2.75013e-50 4.67605e-50 7.83328e-50 1.29271e-49 2.10141e-49 3.36458e-49 5.30549e-49 8.23867e-49 1.25978e-48 1.89675e-48 2.81176e-48 4.10372e-48 5.89649e-48 8.34095e-48 1.16156e-47 1.59246e-47 2.14939e-47 2.85625e-47 3.73715e-47 4.8149e-47 6.10925e-47 7.63495e-47 9.39982e-47 1.14031e-46 1.3634e-46 1.60713e-46 1.86834e-46 2.14293e-46 2.42604e-46 2.71232e-46 2.99622e-46 3.27234e-46 3.53572e-46 3.78208e-46 4.00807e-46 4.21132e-46 4.39046e-46 4.54506e-46 4.67544e-46 4.78252e-46 4.86758e-46 4.93207e-46 4.97747e-46 5.00516e-46 5.01642e-46 5.01242e-46 4.9943e-46 4.96328e-46 4.9208e-46 4.86859e-46 4.80876e-46 4.74381e-46 4.67658e-46 4.61016e-46 4.5477e-46 4.49225e-46 4.44649e-46 4.4126e-46 4.39206e-46 4.38552e-46 4.39282e-46 4.41297e-46 4.44429e-46 4.48454e-46 4.53114e-46 4.58135e-46 4.6325e-46 4.68215e-46 4.72824e-46 4.76917e-46 4.80387e-46 4.83177e-46 4.85278e-46 4.86726e-46 4.87588e-46 4.87959e-46 4.87951e-46 4.87685e-46 4.87281e-46 4.8686e-46 4.8653e-46 4.86392e-46 4.86528e-46 4.87008e-46 4.87883e-46 4.89189e-46 4.90944e-46 4.93152e-46 4.95801e-46 4.98866e-46 5.0231e-46 5.06086e-46 5.10137e-46 5.144e-46 5.188e-46 5.23259e-46 5.27687e-46 5.31989e-46 5.36062e-46 5.39796e-46 5.4308e-46 5.45806e-46 5.47873e-46 5.49196e-46 5.4971e-46 5.49378e-46 5.48189e-46 5.46158e-46 5.43326e-46 5.39747e-46 5.35479e-46 5.30578e-46 5.25081e-46 5.19003e-46 5.12327e-46 5.05006e-46 4.96964e-46 4.88103e-46 4.78307e-46 4.67458e-46 4.55442e-46 4.4216e-46 4.27536e-46 4.11523e-46 3.94112e-46 3.75331e-46 3.55253e-46 3.33995e-46 3.11719e-46 2.88632e-46 2.64983e-46 2.41054e-46 2.17154e-46 1.93606e-46 1.70732e-46 1.48838e-46 1.28201e-46 1.09052e-46 9.157e-47 7.58698e-47 6.20049e-47 4.99671e-47 3.96938e-47 3.10768e-47 2.39738e-47 1.822e-47 1.36399e-47 1.00572e-47 7.30309e-48 5.22249e-48 3.67766e-48 2.55024e-48 1.74142e-48 1.17097e-48 7.7539e-49 5.05642e-49 3.24741e-49 2.05414e-49 1.27982e-49 7.85469e-50 4.74904e-50 2.8289e-50 1.66038e-50 9.60318e-51 5.47377e-51 3.07515e-51 1.70295e-51 9.29696e-52 5.00417e-52 2.65598e-52 1.39017e-52 7.17646e-53 3.6543e-53 1.83569e-53 9.09801e-54 4.44934e-54 2.14732e-54 1.02282e-54 4.80902e-55 2.2321e-55 1.02285e-55 4.62762e-56 2.0661e-56 9.07533e-57 3.85158e-57 1.40697e-57 0 
0 5.01961e-78 1.97224e-77 7.19818e-77 2.59292e-76 9.25697e-76 3.27617e-75 1.14938e-74 3.99702e-74 1.37769e-73 4.70637e-73 1.59334e-72 5.34548e-72 1.77703e-71 5.85331e-71 1.91019e-70 6.17573e-70 1.97791e-69 6.27476e-69 1.97165e-68 6.1358e-68 1.89099e-67 5.77095e-67 1.74387e-66 5.2174e-66 1.54537e-65 4.53121e-65 1.31511e-64 3.7778e-64 1.07401e-63 3.02159e-63 8.41159e-63 2.31686e-62 6.31336e-62 1.70185e-61 4.53774e-61 1.19668e-60 3.12099e-60 8.04902e-60 2.05251e-59 5.17461e-59 1.28966e-58 3.17713e-58 7.73592e-58 1.86149e-57 4.42623e-57 1.03989e-56 2.41364e-56 5.53404e-56 1.25328e-55 2.80314e-55 6.19127e-55 1.35022e-54 2.90717e-54 6.1791e-54 1.29634e-53 2.68412e-53 5.48431e-53 1.10567e-52 2.19921e-52 4.31507e-52 8.35101e-52 1.59393e-51 3.00003e-51 5.56748e-51 1.01863e-50 1.83715e-50 3.26586e-50 5.72169e-50 9.87818e-50 1.68038e-49 2.81623e-49 4.64962e-49 7.56155e-49 1.21117e-48 1.91059e-48 2.96795e-48 4.53985e-48 6.83744e-48 1.01388e-47 1.48012e-47 2.12721e-47 3.00966e-47 4.1919e-47 5.74771e-47 7.7585e-47 1.03105e-46 1.34904e-46 1.73803e-46 2.20507e-46 2.75541e-46 3.39177e-46 4.11373e-46 4.91726e-46 5.79455e-46 6.734e-46 7.72065e-46 8.73687e-46 9.76324e-46 1.07798e-45 1.17669e-45 1.27069e-45 1.35846e-45 1.43879e-45 1.51088e-45 1.57425e-45 1.62878e-45 1.67462e-45 1.71213e-45 1.74179e-45 1.76415e-45 1.77976e-45 1.78913e-45 1.79271e-45 1.79092e-45 1.78417e-45 1.7729e-45 1.75759e-45 1.73887e-45 1.71747e-45 1.69428e-45 1.67029e-45 1.64661e-45 1.62435e-45 1.60458e-45 1.58828e-45 1.57621e-45 1.56889e-45 1.56656e-45 1.56916e-45 1.57633e-45 1.58748e-45 1.6018e-45 1.61837e-45 1.63623e-45 1.65441e-45 1.67206e-45 1.68843e-45 1.70296e-45 1.71526e-45 1.72515e-45 1.73258e-45 1.73769e-45 1.74072e-45 1.742e-45 1.74194e-45 1.74096e-45 1.73949e-45 1.73797e-45 1.73677e-45 1.73626e-45 1.73673e-45 1.73842e-45 1.74152e-45 1.74615e-45 1.75238e-45 1.76023e-45 1.76964e-45 1.78053e-45 1.79277e-45 1.80619e-45 1.82059e-45 1.83574e-45 1.85139e-45 1.86725e-45 1.883e-45 1.89831e-45 1.9128e-45 1.9261e-45 1.93779e-45 1.94751e-45 1.95488e-45 1.9596e-45 1.96145e-45 1.9603e-45 1.95609e-45 1.94889e-45 1.93885e-45 1.92617e-45 1.91105e-45 1.89369e-45 1.87424e-45 1.85274e-45 1.82915e-45 1.8033e-45 1.77493e-45 1.74367e-45 1.70912e-45 1.67085e-45 1.62846e-45 1.58158e-45 1.52992e-45 1.4733e-45 1.41168e-45 1.34514e-45 1.2739e-45 1.19838e-45 1.11913e-45 1.03688e-45 9.52509e-46 8.67018e-46 7.81515e-46 6.97161e-46 6.15121e-46 5.36509e-46 4.62332e-46 3.93441e-46 3.30491e-46 2.73915e-46 2.23921e-46 1.8049e-46 1.43407e-46 1.12291e-46 8.66327e-47 6.58436e-47 4.92921e-47 3.63434e-47 2.6389e-47 1.88688e-47 1.32854e-47 9.21092e-48 6.28829e-48 4.22735e-48 2.7985e-48 1.82439e-48 1.17131e-48 7.40654e-49 4.61292e-49 2.83002e-49 1.71038e-49 1.01842e-49 5.97486e-50 3.45417e-50 1.96797e-50 1.10509e-50 6.11684e-51 3.33778e-51 1.79572e-51 9.52615e-52 4.98362e-52 2.57141e-52 1.30873e-52 6.57092e-53 3.25503e-53 1.59106e-53 7.67484e-54 3.65389e-54 1.7171e-54 7.96594e-55 3.64856e-55 1.64989e-55 7.36275e-56 3.23256e-56 1.37131e-56 5.0077e-57 0 
0 1.7396e-77 6.83614e-77 2.49549e-76 8.99105e-76 3.21055e-75 1.1365e-74 3.98806e-74 1.38717e-73 4.78241e-73 1.63412e-72 5.53363e-72 1.85694e-71 6.17474e-71 2.03442e-70 6.64099e-70 2.14766e-69 6.8803e-69 2.18336e-68 6.8626e-68 2.13631e-67 6.58594e-67 2.01056e-66 6.07754e-66 1.81893e-65 5.38945e-65 1.58081e-64 4.5897e-64 1.31893e-63 3.75109e-63 1.05572e-62 2.94012e-62 8.10142e-62 2.20851e-61 5.95583e-61 1.58872e-60 4.19154e-60 1.09366e-59 2.82181e-59 7.19894e-59 1.81578e-58 4.52759e-58 1.11593e-57 2.71847e-57 6.54466e-57 1.55697e-56 3.65977e-56 8.49889e-56 1.94966e-55 4.41769e-55 9.88602e-55 2.18469e-54 4.76705e-54 1.02695e-53 2.18396e-53 4.58436e-53 9.49732e-53 1.94161e-52 3.91659e-52 7.79451e-52 1.53021e-51 2.96308e-51 5.65864e-51 1.06563e-50 1.97867e-50 3.62212e-50 6.53615e-50 1.16252e-49 2.03774e-49 3.51981e-49 5.99046e-49 1.00445e-48 1.65911e-48 2.69934e-48 4.3255e-48 6.82607e-48 1.06078e-47 1.62316e-47 2.44543e-47 3.62725e-47 5.29669e-47 7.61416e-47 1.0775e-46 1.50101e-46 2.05836e-46 2.77872e-46 3.69289e-46 4.83188e-46 6.22489e-46 7.89699e-46 9.86665e-46 1.21432e-45 1.47246e-45 1.7596e-45 2.07287e-45 2.40806e-45 2.75975e-45 3.12159e-45 3.48658e-45 3.84756e-45 4.19756e-45 4.53025e-45 4.84024e-45 5.12337e-45 5.37677e-45 5.59893e-45 5.78949e-45 5.94913e-45 6.07923e-45 6.18162e-45 6.25833e-45 6.31135e-45 6.34255e-45 6.35357e-45 6.3459e-45 6.32098e-45 6.28029e-45 6.22558e-45 6.15898e-45 6.08305e-45 6.00089e-45 5.91602e-45 5.83227e-45 5.75358e-45 5.68374e-45 5.62614e-45 5.58349e-45 5.55763e-45 5.5494e-45 5.55856e-45 5.58387e-45 5.6232e-45 5.67373e-45 5.73219e-45 5.79516e-45 5.85926e-45 5.92143e-45 5.97909e-45 6.03023e-45 6.07351e-45 6.10823e-45 6.1343e-45 6.15217e-45 6.1627e-45 6.16708e-45 6.16673e-45 6.16315e-45 6.15788e-45 6.15242e-45 6.14813e-45 6.14626e-45 6.14785e-45 6.15376e-45 6.16464e-45 6.18093e-45 6.20286e-45 6.23048e-45 6.26363e-45 6.302e-45 6.34514e-45 6.39244e-45 6.44321e-45 6.49663e-45 6.55181e-45 6.60774e-45 6.66331e-45 6.71732e-45 6.76848e-45 6.81541e-45 6.85673e-45 6.89105e-45 6.91712e-45 6.93386e-45 6.94047e-45 6.93646e-45 6.92171e-45 6.89643e-45 6.86115e-45 6.81656e-45 6.76344e-45 6.7025e-45 6.63425e-45 6.55891e-45 6.47629e-45 6.38582e-45 6.28657e-45 6.17729e-45 6.05654e-45 5.92279e-45 5.77456e-45 5.61055e-45 5.4297e-45 5.23133e-45 5.01516e-45 4.78144e-45 4.53092e-45 4.26494e-45 3.98542e-45 3.69488e-45 3.39639e-45 3.0935e-45 2.79014e-45 2.49044e-45 2.1986e-45 1.91861e-45 1.65414e-45 1.40827e-45 1.1834e-45 9.81151e-46 8.02303e-46 6.46845e-46 5.14044e-46 4.02563e-46 3.10608e-46 2.36082e-46 1.76737e-46 1.30304e-46 9.46066e-47 6.7638e-47 4.76159e-47 3.30064e-47 2.25284e-47 1.5141e-47 1.00205e-47 6.53051e-48 4.19137e-48 2.64938e-48 1.64945e-48 1.01154e-48 6.11088e-49 3.63704e-49 2.13284e-49 1.23246e-49 7.0185e-50 3.93926e-50 2.17938e-50 1.18864e-50 6.39161e-51 3.38898e-51 1.77204e-51 9.13855e-52 4.64868e-52 2.33282e-52 1.15501e-52 5.64274e-53 2.7205e-53 1.29452e-53 6.08032e-54 2.81933e-54 1.29065e-54 5.83342e-55 2.60191e-55 1.1418e-55 4.84156e-56 1.76742e-56 0 
0 5.97514e-77 2.34845e-76 8.57458e-76 3.08998e-75 1.10361e-74 3.90751e-74 1.37148e-73 4.77155e-73 1.64543e-72 5.62369e-72 1.90484e-71 6.39378e-71 2.12663e-70 7.00862e-70 2.28848e-69 7.40292e-69 2.37231e-68 7.53046e-68 2.36766e-67 7.37279e-67 2.27367e-66 6.94337e-66 2.09956e-65 6.28589e-65 1.86316e-64 5.46693e-64 1.58785e-63 4.56472e-63 1.29873e-62 3.65666e-62 1.01877e-61 2.80835e-61 7.65903e-61 2.06635e-60 5.51441e-60 1.45553e-59 3.79949e-59 9.80784e-59 2.50334e-58 6.31718e-58 1.57594e-57 3.88618e-57 9.47175e-57 2.28147e-56 5.4304e-56 1.27713e-55 2.96739e-55 6.81089e-55 1.5441e-54 3.45733e-54 7.64452e-54 1.66899e-53 3.59749e-53 7.65489e-53 1.60776e-52 3.33266e-52 6.81713e-52 1.37593e-51 2.73986e-51 5.38194e-51 1.04275e-50 1.99249e-50 3.75436e-50 6.97505e-50 1.27755e-49 2.30661e-49 4.10476e-49 7.1989e-49 1.24411e-48 2.11846e-48 3.55386e-48 5.87292e-48 9.55952e-48 1.53251e-47 2.41947e-47 3.76134e-47 5.75759e-47 8.67723e-47 1.28747e-46 1.88056e-46 2.70403e-46 3.82734e-46 5.33261e-46 7.31371e-46 9.87418e-46 1.31234e-45 1.71711e-45 2.21206e-45 2.80602e-45 3.50542e-45 4.31344e-45 5.22919e-45 6.24714e-45 7.35689e-45 8.54326e-45 9.7868e-45 1.10647e-44 1.23521e-44 1.36235e-44 1.48541e-44 1.60216e-44 1.71071e-44 1.80962e-44 1.89791e-44 1.97508e-44 2.04106e-44 2.09611e-44 2.14078e-44 2.17575e-44 2.20176e-44 2.21954e-44 2.22977e-44 2.23302e-44 2.22983e-44 2.22069e-44 2.20612e-44 2.18672e-44 2.16321e-44 2.13649e-44 2.10763e-44 2.07784e-44 2.04847e-44 2.02089e-44 1.99642e-44 1.97623e-44 1.96129e-44 1.95223e-44 1.94934e-44 1.95255e-44 1.96141e-44 1.97517e-44 1.99284e-44 2.01329e-44 2.03531e-44 2.05771e-44 2.07944e-44 2.09957e-44 2.11742e-44 2.13251e-44 2.1446e-44 2.15366e-44 2.15986e-44 2.16348e-44 2.16497e-44 2.1648e-44 2.1635e-44 2.16162e-44 2.15968e-44 2.15815e-44 2.15747e-44 2.158e-44 2.16005e-44 2.16384e-44 2.16952e-44 2.17718e-44 2.18682e-44 2.1984e-44 2.21181e-44 2.22688e-44 2.24341e-44 2.26116e-44 2.27983e-44 2.29913e-44 2.31868e-44 2.33812e-44 2.35702e-44 2.37493e-44 2.39136e-44 2.40583e-44 2.41786e-44 2.427e-44 2.43288e-44 2.43522e-44 2.43385e-44 2.42872e-44 2.41992e-44 2.40762e-44 2.39208e-44 2.37358e-44 2.35237e-44 2.32864e-44 2.30246e-44 2.27378e-44 2.2424e-44 2.208e-44 2.17014e-44 2.12832e-44 2.082e-44 2.03064e-44 1.97379e-44 1.91105e-44 1.84217e-44 1.76702e-44 1.68566e-44 1.59833e-44 1.50547e-44 1.40774e-44 1.30598e-44 1.20128e-44 1.09487e-44 9.8813e-45 8.82532e-45 7.79562e-45 6.80654e-45 5.8712e-45 5.00075e-45 4.20394e-45 3.48668e-45 2.85196e-45 2.29992e-45 1.82808e-45 1.43183e-45 1.10487e-45 8.39814e-46 6.28706e-46 4.6351e-46 3.36499e-46 2.40546e-46 1.69312e-46 1.1734e-46 8.00715e-47 5.38007e-47 3.55953e-47 2.31906e-47 1.48789e-47 9.40148e-48 5.85089e-48 3.5866e-48 2.1658e-48 1.28846e-48 7.55227e-49 4.36202e-49 2.48283e-49 1.39284e-49 7.70193e-50 4.19848e-50 2.25646e-50 1.1958e-50 6.24932e-51 3.2211e-51 1.63766e-51 8.21378e-52 4.06456e-52 1.98466e-52 9.56337e-53 4.54822e-53 2.13514e-53 9.895e-54 4.52743e-54 2.04522e-54 9.11772e-55 3.99913e-55 1.69497e-55 6.18535e-56 0 