# vtk DataFile Version 3.0
Gray-Scott Simulation Output
ASCII
DATASET STRUCTURED_POINTS
DIMENSIONS 256 256 1
SPACING 1.0 1.0 1.0
ORIGIN 0 0 0
POINT_DATA 65536
SCALARS u double
LOOKUP_TABLE default
0 0 0 0 0 0 0 0 0 0 0 0 0 0 0 0 0 0 0 0 0 0 0 0 0 0 0 0 0 0 0 0 0 0 0 0 0 0 0 0 0 0 0 0 0 0 0 0 0 0 0 0 0 0 0 0 0 0 0 0 0 0 0 0 0 0 0 0 0 0 0 0 0 0 0 0 0 0 0 0 0 0 0 0 0 0 0 0 0 0 0 0 0 0 0 0 0 0 0 0 0 0 0 0 0 0 0 0 0 0 0 0 0 0 0 0 0 0 0 0 0 0 0 0 0 0 0 0 0 0 0 0 0 0 0 0 0 0 0 0 0 0 0 0 0 0 0 0 0 0 0 0 0 0 0 0 0 0 0 0 0 0 0 0 0 0 0 0 0 0 0 0 0 0 0 0 0 0 0 0 0 0 0 0 0 0 0 0 0 0 0 0 0 0 0 0 0 0 0 0 0 0 0 0 0 0 0 0 0 0 0 0 0 0 0 0 0 0 0 0 0 0 0 0 0 0 0 0 0 0 0 0 0 0 0 0 0 0 0 0 0 0 0 0 0 0 0 0 0 0 0 0 0 0 0 0 
0 4.01306e-102 2.36753e-101 1.34475e-100 7.55825e-100 4.20673e-99 2.31838e-98 1.26504e-97 6.83384e-97 3.6545e-96 1.93443e-95 1.01344e-94 5.25445e-94 2.69583e-93 1.36853e-92 6.87338e-92 3.41503e-91 1.67834e-90 8.15804e-90 3.92158e-89 1.86406e-88 8.76063e-88 4.07039e-87 1.86944e-86 8.48618e-86 3.80702e-85 1.68763e-84 7.39154e-84 3.19818e-83 1.36686e-82 5.76954e-82 2.4049e-81 9.8976e-81 4.02143e-80 1.61283e-79 6.38391e-79 2.49352e-78 9.60951e-78 3.65329e-77 1.36992e-76 5.06595e-76 1.84719e-75 6.64012e-75 2.35276e-74 8.21568e-74 2.8268e-73 9.58191e-73 3.19916e-72 1.05188e-71 3.4053e-71 1.08523e-70 3.40389e-70 1.05058e-69 3.19004e-69 9.52752e-69 2.79826e-68 8.08027e-68 2.29348e-67 6.39733e-67 1.75321e-66 4.71956e-66 1.24766e-65 3.23825e-65 8.24977e-65 2.06243e-64 5.05842e-64 1.21685e-63 2.87034e-63 6.63733e-63 1.50419e-62 3.33999e-62 7.26458e-62 1.54733e-61 3.22662e-61 6.58557e-61 1.31525e-60 2.5697e-60 4.91029e-60 9.17443e-60 1.6757e-59 2.99133e-59 5.21783e-59 8.89182e-59 1.4801e-58 2.40614e-58 3.81969e-58 5.92064e-58 8.96012e-58 1.3239e-57 1.90984e-57 2.69016e-57 3.70044e-57 4.97179e-57 6.52648e-57 8.37361e-57 1.05055e-56 1.28957e-56 1.54987e-56 1.82527e-56 2.1084e-56 2.39136e-56 2.66641e-56 2.92672e-56 3.16685e-56 3.38312e-56 3.57367e-56 3.73833e-56 3.8782e-56 3.99523e-56 4.09166e-56 4.16956e-56 4.23042e-56 4.27494e-56 4.30295e-56 4.31352e-56 4.30524e-56 4.27669e-56 4.22693e-56 4.15604e-56 4.06561e-56 3.95898e-56 3.84136e-56 3.71951e-56 3.60126e-56 3.49472e-56 3.40742e-56 3.34546e-56 3.31279e-56 3.31081e-56 3.33827e-56 3.39156e-56 3.46522e-56 3.5527e-56 3.64712e-56 3.74197e-56 3.83166e-56 3.91188e-56 3.97971e-56 4.03356e-56 4.07304e-56 4.09869e-56 4.11178e-56 4.11407e-56 4.10762e-56 4.09465e-56 4.07737e-56 4.0579e-56 4.0382e-56 4.01996e-56 4.00462e-56 3.99335e-56 3.9871e-56 3.98662e-56 3.9925e-56 4.00517e-56 4.02486e-56 4.05157e-56 4.08501e-56 4.12458e-56 4.16937e-56 4.21829e-56 4.27017e-56 4.32391e-56 4.37866e-56 4.43383e-56 4.48908e-56 4.54411e-56 4.59848e-56 4.6513e-56 4.70107e-56 4.74564e-56 4.78232e-56 4.80823e-56 4.82077e-56 4.81813e-56 4.79966e-56 4.76613e-56 4.71965e-56 4.66337e-56 4.60089e-56 4.53563e-56 4.47017e-56 4.40571e-56 4.34188e-56 4.27674e-56 4.20709e-56 4.12903e-56 4.03857e-56 3.93222e-56 3.80752e-56 3.66329e-56 3.49969e-56 3.31805e-56 3.12062e-56 2.91022e-56 2.68992e-56 2.46286e-56 2.2321e-56 2.00071e-56 1.77174e-56 1.54832e-56 1.3336e-56 1.13071e-56 9.42548e-57 7.71571e-57 6.19595e-57 4.87627e-57 3.75805e-57 2.83421e-57 2.09051e-57 1.50739e-57 1.0622e-57 7.31281e-58 4.91795e-58 3.23045e-58 2.07256e-58 1.29873e-58 7.9493e-59 4.75309e-59 2.77662e-59 1.58496e-59 8.84218e-60 4.82196e-60 2.571e-60 1.34059e-60 6.83756e-61 3.41213e-61 1.66639e-61 7.96647e-62 3.72907e-62 1.7096e-62 7.67824e-63 3.37919e-63 1.45767e-63 6.16474e-64 2.55677e-64 1.04015e-64 4.15187e-65 1.62644e-65 6.25442e-66 2.36155e-66 8.75732e-67 3.19016e-67 1.14189e-67 4.01698e-68 1.38913e-68 4.7233e-69 1.57944e-69 5.19531e-70 1.68135e-70 5.35464e-71 1.67842e-71 5.17657e-72 1.56242e-72 4.30698e-73 0 
0 2.36416e-101 1.39462e-100 7.9207e-100 4.45147e-99 2.47736e-98 1.36518e-97 7.4486e-97 4.02347e-96 2.15144e-95 1.13873e-94 5.96537e-94 3.09268e-93 1.58662e-92 8.0539e-92 4.04478e-91 2.00952e-90 9.87544e-90 4.79997e-89 2.30724e-88 1.09666e-87 5.15382e-87 2.39449e-86 1.0997e-85 4.99184e-85 2.23935e-84 9.92667e-84 4.34763e-83 1.8811e-82 8.03949e-82 3.39345e-81 1.41448e-80 5.82142e-80 2.36528e-79 9.48619e-79 3.75488e-78 1.46666e-77 5.65233e-77 2.14893e-76 8.05832e-76 2.98006e-75 1.08666e-74 3.90641e-74 1.38421e-73 4.83381e-73 1.66328e-72 5.63833e-72 1.88263e-71 6.19048e-71 2.00423e-70 6.38777e-70 2.00374e-69 6.18496e-69 1.87821e-68 5.61012e-68 1.64788e-67 4.75895e-67 1.35092e-66 3.76865e-66 1.03294e-65 2.78097e-65 7.35271e-65 1.90863e-64 4.86309e-64 1.21594e-63 2.9827e-63 7.1762e-63 1.693e-62 3.91545e-62 8.87474e-62 1.97091e-61 4.28744e-61 9.13349e-61 1.90489e-60 3.88849e-60 7.76716e-60 1.51775e-59 2.90061e-59 5.42031e-59 9.90155e-59 1.76778e-58 3.08398e-58 5.25614e-58 8.75019e-58 1.42264e-57 2.25864e-57 3.5013e-57 5.29921e-57 7.83038e-57 1.12968e-56 1.59132e-56 2.18902e-56 2.94118e-56 3.86095e-56 4.9537e-56 6.21484e-56 7.62864e-56 9.16817e-56 1.07968e-55 1.24708e-55 1.41434e-55 1.5769e-55 1.73069e-55 1.87252e-55 2.00021e-55 2.11267e-55 2.2098e-55 2.29228e-55 2.36125e-55 2.41806e-55 2.46393e-55 2.49975e-55 2.52595e-55 2.54242e-55 2.54861e-55 2.54371e-55 2.52687e-55 2.49753e-55 2.45574e-55 2.40244e-55 2.33959e-55 2.27025e-55 2.19843e-55 2.12873e-55 2.06594e-55 2.0145e-55 1.97799e-55 1.95876e-55 1.95763e-55 1.97385e-55 2.00529e-55 2.04875e-55 2.10034e-55 2.15602e-55 2.21194e-55 2.26482e-55 2.31211e-55 2.35208e-55 2.38381e-55 2.40706e-55 2.42217e-55 2.42988e-55 2.43122e-55 2.42742e-55 2.41977e-55 2.40959e-55 2.39812e-55 2.38652e-55 2.37577e-55 2.36674e-55 2.3601e-55 2.35642e-55 2.35614e-55 2.3596e-55 2.36705e-55 2.37863e-55 2.39435e-55 2.41403e-55 2.43731e-55 2.46368e-55 2.49248e-55 2.52301e-55 2.55465e-55 2.58688e-55 2.61937e-55 2.6519e-55 2.68431e-55 2.71633e-55 2.74745e-55 2.77677e-55 2.80304e-55 2.82466e-55 2.83994e-55 2.84734e-55 2.84579e-55 2.83492e-55 2.81517e-55 2.78778e-55 2.75463e-55 2.71782e-55 2.67937e-55 2.6408e-55 2.60283e-55 2.56524e-55 2.52687e-55 2.48585e-55 2.43988e-55 2.38659e-55 2.32394e-55 2.25047e-55 2.16548e-55 2.06904e-55 1.96196e-55 1.84554e-55 1.72143e-55 1.59144e-55 1.4574e-55 1.32113e-55 1.18441e-55 1.04907e-55 9.1694e-56 7.89912e-56 6.69836e-56 5.58438e-56 4.57186e-56 3.67164e-56 2.8898e-56 2.2272e-56 1.67973e-56 1.23897e-56 8.93369e-57 6.29505e-57 4.33369e-57 2.9143e-57 1.91418e-57 1.22798e-57 7.69426e-58 4.70904e-58 2.81535e-58 1.64446e-58 9.38583e-59 5.23549e-59 2.85472e-59 1.52189e-59 7.93439e-60 4.04629e-60 2.01891e-60 9.85836e-61 4.71224e-61 2.20545e-61 1.01094e-61 4.53968e-62 1.99761e-62 8.61572e-63 3.6432e-63 1.51076e-63 6.14523e-64 2.45258e-64 9.60629e-65 3.69356e-65 1.39443e-65 5.17029e-66 1.88322e-66 6.73997e-67 2.37074e-67 8.19739e-68 2.78696e-68 9.31846e-69 3.06483e-69 9.91768e-70 3.15822e-70 9.89859e-71 3.05267e-71 9.21301e-72 2.5395e-72 0 
0 1.34078e-100 7.90856e-100 4.4912e-99 2.52384e-98 1.40445e-97 7.73877e-97 4.222e-96 2.28038e-95 1.21928e-94 6.453e-94 3.38022e-93 1.75231e-92 8.98915e-92 4.56274e-91 2.29133e-90 1.13831e-89 5.5937e-89 2.71869e-88 1.30675e-87 6.21089e-87 2.91872e-86 1.356e-85 6.22739e-85 2.82671e-84 1.26803e-83 5.62086e-83 2.46175e-82 1.06512e-81 4.55209e-81 1.92142e-80 8.00895e-80 3.29618e-79 1.33927e-78 5.37135e-78 2.12616e-77 8.30498e-77 3.20072e-76 1.21691e-75 4.56348e-75 1.6877e-74 6.15438e-74 2.21254e-73 7.84041e-73 2.73813e-72 9.42236e-72 3.19431e-71 1.06666e-70 3.50769e-70 1.13575e-69 3.62014e-69 1.13569e-68 3.50591e-68 1.06477e-67 3.18078e-67 9.34414e-67 2.69885e-66 7.66222e-66 2.1378e-65 5.86026e-65 1.57798e-64 4.17268e-64 1.08331e-63 2.76066e-63 6.90367e-63 1.69374e-62 4.07572e-62 9.61697e-62 2.22452e-61 5.04295e-61 1.12013e-60 2.43712e-60 5.19266e-60 1.08317e-59 2.21148e-59 4.41812e-59 8.63473e-59 1.65048e-58 3.0847e-58 5.63586e-58 1.00636e-57 1.75589e-57 2.99304e-57 4.98334e-57 8.10313e-57 1.28663e-56 1.99471e-56 3.01928e-56 4.46181e-56 6.43744e-56 9.06861e-56 1.24754e-55 1.67625e-55 2.20049e-55 2.82328e-55 3.54201e-55 4.34767e-55 5.22486e-55 6.15265e-55 7.10614e-55 8.05863e-55 8.98406e-55 9.85935e-55 1.06662e-54 1.13924e-54 1.20316e-54 1.25835e-54 1.30519e-54 1.34433e-54 1.37656e-54 1.40257e-54 1.42287e-54 1.43771e-54 1.44704e-54 1.45053e-54 1.44774e-54 1.43817e-54 1.42151e-54 1.39778e-54 1.36752e-54 1.33184e-54 1.29248e-54 1.25171e-54 1.21214e-54 1.1765e-54 1.1473e-54 1.12659e-54 1.11569e-54 1.11506e-54 1.12429e-54 1.14217e-54 1.16686e-54 1.19617e-54 1.22779e-54 1.25954e-54 1.28957e-54 1.31641e-54 1.3391e-54 1.3571e-54 1.3703e-54 1.37886e-54 1.38323e-54 1.38399e-54 1.38183e-54 1.37749e-54 1.37171e-54 1.36521e-54 1.35862e-54 1.35253e-54 1.34741e-54 1.34364e-54 1.34155e-54 1.34139e-54 1.34335e-54 1.34757e-54 1.35413e-54 1.36304e-54 1.37419e-54 1.38739e-54 1.40233e-54 1.41866e-54 1.43597e-54 1.4539e-54 1.47218e-54 1.4906e-54 1.50904e-54 1.52742e-54 1.54559e-54 1.56324e-54 1.57989e-54 1.5948e-54 1.60707e-54 1.61575e-54 1.61995e-54 1.61908e-54 1.61292e-54 1.60171e-54 1.58618e-54 1.56736e-54 1.54647e-54 1.52466e-54 1.50278e-54 1.48124e-54 1.45991e-54 1.43815e-54 1.41489e-54 1.38881e-54 1.35858e-54 1.32304e-54 1.28135e-54 1.23312e-54 1.17838e-54 1.11758e-54 1.05146e-54 9.80951e-55 9.07071e-55 8.30858e-55 7.53337e-55 6.75529e-55 5.98462e-55 5.23191e-55 4.50791e-55 3.82326e-55 3.18787e-55 2.61016e-55 2.0964e-55 1.6501e-55 1.27181e-55 9.59205e-56 7.07514e-56 5.10151e-56 3.59462e-56 2.47452e-56 1.66395e-56 1.09284e-56 7.01014e-57 4.39195e-57 2.68767e-57 1.60666e-57 9.38336e-58 5.35486e-58 2.98656e-58 1.62822e-58 8.67891e-59 4.52405e-59 2.30675e-59 1.15077e-59 5.6183e-60 2.68506e-60 1.25646e-60 5.75844e-61 2.58542e-61 1.13748e-61 4.90515e-62 2.07382e-62 8.59829e-63 3.49691e-63 1.3954e-63 5.46469e-64 2.10082e-64 7.93004e-65 2.93988e-65 1.07067e-65 3.83135e-66 1.34747e-66 4.6586e-67 1.58364e-67 5.2944e-68 1.74112e-68 5.63359e-69 1.79379e-69 5.62158e-70 1.7335e-70 5.23127e-71 1.44186e-71 0 
0 7.5241e-100 4.43768e-99 2.51988e-98 1.41592e-97 7.87856e-97 4.34085e-96 2.36802e-95 1.27891e-94 6.83755e-94 3.61849e-93 1.89531e-92 9.82464e-92 5.0396e-91 2.55785e-90 1.28444e-89 6.3806e-89 3.1353e-88 1.52376e-87 7.32373e-87 3.48077e-86 1.63568e-85 7.5989e-85 3.48967e-84 1.58397e-83 7.10539e-83 3.14958e-82 1.3794e-81 5.96815e-81 2.55064e-80 1.07662e-79 4.48763e-79 1.84695e-78 7.50445e-78 3.00983e-77 1.19142e-76 4.65394e-76 1.79368e-75 6.81977e-75 2.55757e-74 9.45907e-74 3.44954e-73 1.2402e-72 4.3951e-72 1.53502e-71 5.28266e-71 1.79104e-70 5.98122e-70 1.9671e-69 6.36986e-69 2.03056e-68 6.37087e-68 1.96693e-67 5.9744e-67 1.78495e-66 5.2443e-66 1.5149e-65 4.30151e-65 1.20032e-64 3.29086e-64 8.86257e-64 2.34392e-63 6.08628e-63 1.55125e-62 3.87991e-62 9.52059e-62 2.29138e-61 5.40764e-61 1.25107e-60 2.83668e-60 6.30194e-60 1.37139e-59 2.92249e-59 6.09732e-59 1.2451e-58 2.48792e-58 4.86324e-58 9.2974e-58 1.73796e-57 3.17584e-57 5.67179e-57 9.89767e-57 1.68738e-56 2.80983e-56 4.5695e-56 7.25643e-56 1.12512e-55 1.70319e-55 2.51715e-55 3.63198e-55 5.11679e-55 7.03932e-55 9.45867e-55 1.2417e-54 1.59315e-54 1.99869e-54 2.45324e-54 2.94809e-54 3.47139e-54 4.00908e-54 4.54608e-54 5.06768e-54 5.56085e-54 6.01531e-54 6.42411e-54 6.78384e-54 7.09423e-54 7.3575e-54 7.57744e-54 7.7584e-54 7.90438e-54 8.01829e-54 8.10151e-54 8.15376e-54 8.1733e-54 8.15751e-54 8.10368e-54 8.01002e-54 7.87668e-54 7.70659e-54 7.50607e-54 7.28487e-54 7.05573e-54 6.83337e-54 6.63308e-54 6.46903e-54 6.3527e-54 6.29151e-54 6.2881e-54 6.3401e-54 6.44069e-54 6.57956e-54 6.74438e-54 6.92218e-54 7.10069e-54 7.26943e-54 7.42029e-54 7.54777e-54 7.64892e-54 7.72302e-54 7.77112e-54 7.79563e-54 7.79986e-54 7.7877e-54 7.7633e-54 7.73084e-54 7.69431e-54 7.65735e-54 7.62314e-54 7.59437e-54 7.57323e-54 7.5615e-54 7.56056e-54 7.57153e-54 7.59519e-54 7.632e-54 7.68196e-54 7.74453e-54 7.81858e-54 7.90244e-54 7.99404e-54 8.09119e-54 8.19185e-54 8.29442e-54 8.39781e-54 8.50137e-54 8.60457e-54 8.70658e-54 8.80574e-54 8.89924e-54 8.98301e-54 9.05199e-54 9.10078e-54 9.12446e-54 9.1196e-54 9.085e-54 9.02207e-54 8.93481e-54 8.82912e-54 8.71179e-54 8.58926e-54 8.46636e-54 8.34539e-54 8.22564e-54 8.10346e-54 7.97284e-54 7.82643e-54 7.6567e-54 7.4571e-54 7.22294e-54 6.95195e-54 6.64436e-54 6.30263e-54 5.93089e-54 5.53434e-54 5.11866e-54 4.68966e-54 4.25309e-54 3.81468e-54 3.38023e-54 2.95568e-54 2.54715e-54 2.16065e-54 1.80182e-54 1.47547e-54 1.18516e-54 9.32915e-55 7.19074e-55 5.42343e-55 4.00036e-55 2.8844e-55 2.03233e-55 1.39897e-55 9.40652e-56 6.17747e-56 3.96223e-56 2.48213e-56 1.51877e-56 9.07787e-57 5.30102e-57 3.02473e-57 1.68672e-57 9.19426e-58 4.90003e-58 2.55381e-58 1.30193e-58 6.49383e-59 3.16985e-59 1.51465e-59 7.08646e-60 3.24718e-60 1.45765e-60 6.41192e-61 2.76452e-61 1.16859e-61 4.84426e-62 1.96982e-62 7.85901e-63 3.07724e-63 1.18281e-63 4.46407e-64 1.6547e-64 6.02528e-65 2.15581e-65 7.5808e-66 2.62054e-66 8.90707e-67 2.97742e-67 9.79036e-68 3.1674e-68 1.00842e-68 3.15994e-69 9.74315e-70 2.93996e-70 8.10255e-71 0 
0 4.18102e-99 2.46573e-98 1.40001e-97 7.86596e-97 4.37645e-96 2.41109e-95 1.31519e-94 7.10248e-94 3.79698e-93 2.00925e-92 1.05234e-91 5.45464e-91 2.79781e-90 1.41995e-89 7.12994e-89 3.54171e-88 1.74024e-87 8.45723e-87 4.06467e-86 1.93175e-85 9.07737e-85 4.21697e-84 1.93653e-83 8.78978e-83 3.94286e-82 1.74772e-81 7.65425e-81 3.31171e-80 1.41534e-79 5.97415e-79 2.49021e-78 1.0249e-77 4.1644e-77 1.67027e-76 6.61183e-76 2.58281e-75 9.95483e-75 3.78511e-74 1.41957e-73 5.25052e-73 1.91488e-72 6.88496e-72 2.44011e-71 8.52292e-71 2.93334e-70 9.94608e-70 3.32183e-69 1.09259e-68 3.5384e-68 1.12808e-67 3.53976e-67 1.09299e-66 3.3203e-66 9.92123e-66 2.91533e-65 8.42261e-65 2.39192e-64 6.67557e-64 1.8305e-63 4.93051e-63 1.30421e-62 3.38712e-62 8.63448e-62 2.16e-61 5.30122e-61 1.27611e-60 3.01218e-60 6.97011e-60 1.5807e-59 3.51235e-59 7.64482e-59 1.62946e-58 3.40028e-58 6.94485e-58 1.38796e-57 2.71361e-57 5.18877e-57 9.7011e-57 1.77303e-56 3.16702e-56 5.52757e-56 9.42499e-56 1.56969e-55 2.55307e-55 4.05482e-55 6.28777e-55 9.51936e-55 1.407e-54 2.03031e-54 2.86052e-54 3.9355e-54 5.28828e-54 6.94242e-54 8.90737e-54 1.11747e-53 1.37156e-53 1.64815e-53 1.94059e-53 2.24101e-53 2.54097e-53 2.83223e-53 3.10753e-53 3.36112e-53 3.58913e-53 3.78966e-53 3.9626e-53 4.10921e-53 4.23161e-53 4.33227e-53 4.41343e-53 4.47673e-53 4.52296e-53 4.55196e-53 4.56277e-53 4.55393e-53 4.52394e-53 4.47178e-53 4.39753e-53 4.30283e-53 4.19118e-53 4.06802e-53 3.94044e-53 3.81664e-53 3.70513e-53 3.61381e-53 3.54908e-53 3.51506e-53 3.51322e-53 3.54224e-53 3.59832e-53 3.67571e-53 3.76754e-53 3.86657e-53 3.96599e-53 4.05996e-53 4.14394e-53 4.2149e-53 4.2712e-53 4.31242e-53 4.33918e-53 4.3528e-53 4.35513e-53 4.34835e-53 4.33477e-53 4.3167e-53 4.29638e-53 4.27581e-53 4.25678e-53 4.24078e-53 4.22902e-53 4.22249e-53 4.22196e-53 4.22805e-53 4.24119e-53 4.26165e-53 4.28941e-53 4.32418e-53 4.36535e-53 4.41196e-53 4.46289e-53 4.5169e-53 4.57287e-53 4.6299e-53 4.68739e-53 4.74499e-53 4.80239e-53 4.85914e-53 4.91432e-53 4.96636e-53 5.013e-53 5.05141e-53 5.07859e-53 5.09179e-53 5.08911e-53 5.06987e-53 5.03486e-53 4.9863e-53 4.92748e-53 4.86219e-53 4.794e-53 4.72562e-53 4.65831e-53 4.5917e-53 4.52374e-53 4.45109e-53 4.36966e-53 4.27525e-53 4.1642e-53 4.0339e-53 3.88309e-53 3.71186e-53 3.52158e-53 3.31453e-53 3.09358e-53 2.86187e-53 2.62264e-53 2.37906e-53 2.13433e-53 1.89168e-53 1.65444e-53 1.42603e-53 1.20986e-53 1.00908e-53 8.26407e-54 6.63869e-54 5.22611e-54 4.02838e-54 3.03837e-54 2.24113e-54 1.6159e-54 1.13851e-54 7.83663e-55 5.26887e-55 3.45988e-55 2.21895e-55 1.3899e-55 8.50345e-56 5.08193e-56 2.96717e-56 1.69279e-56 9.43823e-57 5.14389e-57 2.74093e-57 1.42827e-57 7.28e-58 3.63049e-58 1.77183e-58 8.46472e-59 3.95957e-59 1.81402e-59 8.14159e-60 3.58064e-60 1.54352e-60 6.52338e-61 2.70369e-61 1.0992e-61 4.38471e-62 1.71655e-62 6.59683e-63 2.48931e-63 9.2256e-64 3.3588e-64 1.20157e-64 4.22463e-65 1.46016e-65 4.96229e-66 1.65854e-66 5.45292e-67 1.76391e-67 5.61515e-68 1.75934e-68 5.42404e-69 1.63651e-69 4.50986e-70 0 
0 2.30046e-98 1.35656e-97 7.70169e-97 4.32683e-96 2.40715e-95 1.32605e-94 7.23274e-94 3.90564e-93 2.0878e-92 1.10473e-91 5.78563e-91 2.9987e-90 1.53801e-89 7.80531e-89 3.91905e-88 1.94664e-87 9.56453e-87 4.64799e-86 2.23381e-85 1.0616e-84 4.98832e-84 2.31731e-83 1.06414e-82 4.82998e-82 2.16657e-81 9.6035e-81 4.20591e-80 1.81974e-79 7.77718e-79 3.28277e-78 1.36838e-77 5.63198e-77 2.28846e-76 9.1789e-76 3.63363e-75 1.41948e-74 5.4713e-74 2.08045e-73 7.80299e-73 2.88624e-72 1.05269e-71 3.78523e-71 1.34163e-70 4.68651e-70 1.61311e-69 5.47009e-69 1.82711e-68 6.01021e-68 1.94665e-67 6.20689e-67 1.94788e-66 6.01534e-66 1.8276e-65 5.46173e-65 1.60515e-64 4.63812e-64 1.31738e-63 3.67725e-63 1.0085e-62 2.7169e-62 7.18797e-62 1.86711e-61 4.76053e-61 1.19112e-60 2.92389e-60 7.03978e-60 1.66203e-59 3.84666e-59 8.72532e-59 1.93918e-58 4.22159e-58 9e-58 1.87846e-57 3.83741e-57 7.6708e-57 1.50002e-56 2.86878e-56 5.36459e-56 9.80646e-56 1.75196e-55 3.05833e-55 5.21557e-55 8.68763e-55 1.41323e-54 2.24482e-54 3.48145e-54 5.27132e-54 7.79198e-54 1.12448e-53 1.5844e-53 2.17993e-53 2.92937e-53 3.84573e-53 4.93423e-53 6.1901e-53 7.59742e-53 9.12908e-53 1.07482e-52 1.24112e-52 1.40711e-52 1.56825e-52 1.72049e-52 1.86067e-52 1.98665e-52 2.0974e-52 2.19285e-52 2.27372e-52 2.3412e-52 2.39666e-52 2.44135e-52 2.4762e-52 2.50163e-52 2.51757e-52 2.5235e-52 2.51859e-52 2.50203e-52 2.47326e-52 2.4323e-52 2.38007e-52 2.31849e-52 2.25055e-52 2.18018e-52 2.1119e-52 2.0504e-52 2.00004e-52 1.96435e-52 1.94561e-52 1.94463e-52 1.96068e-52 1.99165e-52 2.03438e-52 2.08506e-52 2.13971e-52 2.19456e-52 2.24639e-52 2.29272e-52 2.33184e-52 2.36288e-52 2.3856e-52 2.40034e-52 2.40784e-52 2.40912e-52 2.40537e-52 2.39788e-52 2.38792e-52 2.37671e-52 2.36538e-52 2.35489e-52 2.34608e-52 2.3396e-52 2.33599e-52 2.3357e-52 2.33904e-52 2.34628e-52 2.35753e-52 2.37282e-52 2.39196e-52 2.41463e-52 2.4403e-52 2.46835e-52 2.49809e-52 2.52892e-52 2.56034e-52 2.59201e-52 2.62374e-52 2.65537e-52 2.68665e-52 2.71707e-52 2.74576e-52 2.77148e-52 2.79267e-52 2.80767e-52 2.81497e-52 2.8135e-52 2.8029e-52 2.78361e-52 2.75684e-52 2.72441e-52 2.68841e-52 2.65082e-52 2.61313e-52 2.57603e-52 2.53932e-52 2.50188e-52 2.46186e-52 2.41699e-52 2.36497e-52 2.30377e-52 2.23195e-52 2.1488e-52 2.05438e-52 1.94942e-52 1.83518e-52 1.71322e-52 1.58528e-52 1.45311e-52 1.31848e-52 1.18314e-52 1.04887e-52 9.17528e-53 7.91015e-53 6.71219e-53 5.59912e-53 4.5861e-53 3.68446e-53 2.9007e-53 2.23601e-53 1.68653e-53 1.244e-53 8.96932e-54 6.31924e-54 4.34941e-54 2.92406e-54 1.91995e-54 1.2312e-54 7.71103e-55 4.71702e-55 2.81864e-55 1.64546e-55 9.38594e-56 5.23229e-56 2.85112e-56 1.51895e-56 7.91363e-57 4.03286e-57 2.01077e-57 9.81148e-58 4.68639e-58 2.19173e-58 1.00391e-58 4.50479e-59 1.98079e-59 8.53696e-60 3.60727e-60 1.49479e-60 6.07597e-61 2.42324e-61 9.4849e-62 3.64444e-62 1.37498e-62 5.09492e-63 1.85461e-63 6.63353e-64 2.33192e-64 8.05859e-65 2.73826e-65 9.15074e-66 3.00813e-66 9.72942e-67 3.09681e-67 9.70173e-68 2.99068e-68 9.02232e-69 2.48611e-69 0 
0 1.25317e-97 7.38924e-97 4.19478e-96 2.35645e-95 1.31086e-94 7.2207e-94 3.93812e-93 2.12641e-92 1.13662e-91 6.01387e-91 3.14936e-90 1.63222e-89 8.37109e-89 4.24805e-88 2.13285e-87 1.05937e-86 5.20482e-86 2.52925e-85 1.21551e-84 5.77642e-84 2.71421e-83 1.26085e-82 5.7899e-82 2.62792e-81 1.17879e-80 5.22507e-80 2.28836e-79 9.90093e-79 4.23149e-78 1.78615e-77 7.4455e-77 3.0645e-76 1.24524e-75 4.9948e-75 1.97736e-74 7.72493e-74 2.97768e-73 1.13232e-72 4.24718e-72 1.57109e-71 5.73063e-71 2.06077e-70 7.3048e-70 2.5519e-69 8.78455e-69 2.97917e-68 9.95206e-68 3.27408e-67 1.06057e-66 3.38207e-66 1.06152e-65 3.27858e-65 9.96253e-65 2.97773e-64 8.75264e-64 2.5295e-63 7.18583e-63 2.00616e-62 5.50297e-62 1.48277e-61 3.92362e-61 1.01937e-60 2.59959e-60 6.50568e-60 1.5973e-59 3.84658e-59 9.08333e-59 2.10273e-58 4.77062e-58 1.06048e-57 2.30918e-57 4.92399e-57 1.02794e-56 2.10039e-56 4.19947e-56 8.21375e-56 1.5712e-55 2.93872e-55 5.37302e-55 9.60094e-55 1.6763e-54 2.8592e-54 4.76338e-54 7.74988e-54 1.23119e-53 1.90968e-53 2.89181e-53 4.27507e-53 6.17002e-53 8.69422e-53 1.19628e-52 1.60761e-52 2.11054e-52 2.70792e-52 3.3971e-52 4.16929e-52 5.00958e-52 5.89771e-52 6.80964e-52 7.71966e-52 8.60274e-52 9.43679e-52 1.02044e-51 1.08939e-51 1.14997e-51 1.20215e-51 1.24634e-51 1.28318e-51 1.31345e-51 1.33783e-51 1.35682e-51 1.37068e-51 1.37936e-51 1.38258e-51 1.37988e-51 1.37083e-51 1.3551e-51 1.33272e-51 1.30418e-51 1.27053e-51 1.23342e-51 1.19497e-51 1.15766e-51 1.12406e-51 1.09655e-51 1.07706e-51 1.06683e-51 1.06632e-51 1.07511e-51 1.09205e-51 1.11542e-51 1.14313e-51 1.173e-51 1.20298e-51 1.2313e-51 1.25661e-51 1.27798e-51 1.29493e-51 1.30734e-51 1.31538e-51 1.31947e-51 1.32016e-51 1.31811e-51 1.31402e-51 1.30857e-51 1.30246e-51 1.29627e-51 1.29054e-51 1.28573e-51 1.28219e-51 1.28023e-51 1.28006e-51 1.28188e-51 1.28582e-51 1.29196e-51 1.3003e-51 1.31074e-51 1.3231e-51 1.33711e-51 1.35241e-51 1.36863e-51 1.38545e-51 1.4026e-51 1.41988e-51 1.4372e-51 1.45446e-51 1.47154e-51 1.48815e-51 1.50382e-51 1.51787e-51 1.52946e-51 1.53765e-51 1.54165e-51 1.54086e-51 1.53507e-51 1.52454e-51 1.50992e-51 1.49221e-51 1.47255e-51 1.45202e-51 1.43144e-51 1.41119e-51 1.39115e-51 1.37071e-51 1.34887e-51 1.32439e-51 1.29599e-51 1.26259e-51 1.22338e-51 1.17797e-51 1.12639e-51 1.06905e-51 1.00661e-51 9.39929e-52 8.69946e-52 7.97618e-52 7.23902e-52 6.49754e-52 5.76156e-52 5.04122e-52 4.347e-52 3.68933e-52 3.07801e-52 2.52145e-52 2.02593e-52 1.59509e-52 1.22964e-52 9.27485e-53 6.8412e-53 4.93243e-53 3.47494e-53 2.39159e-53 1.6077e-53 1.05552e-53 6.76796e-54 4.23825e-54 2.59228e-54 1.54877e-54 9.03992e-55 5.15563e-55 2.87355e-55 1.56553e-55 8.33887e-56 4.34363e-56 2.21311e-56 1.10322e-56 5.38201e-57 2.57014e-57 1.20175e-57 5.50339e-58 2.46898e-58 1.0854e-58 4.67697e-59 1.97583e-59 8.1858e-60 3.32666e-60 1.32649e-60 5.19104e-61 1.9942e-61 7.52234e-62 2.78684e-62 1.01426e-62 3.62715e-63 1.27485e-63 4.40487e-64 1.49651e-64 5.00027e-65 1.6435e-65 5.31491e-66 1.69146e-66 5.29834e-67 1.63307e-67 4.92609e-68 1.35726e-68 0 
0 6.75824e-97 3.98463e-96 2.26184e-95 1.2705e-94 7.06708e-94 3.89252e-93 2.1228e-92 1.14614e-91 6.12602e-91 3.24108e-90 1.6972e-89 8.7956e-89 4.51073e-88 2.28894e-87 1.14917e-86 5.7076e-86 2.80412e-85 1.3626e-84 6.54822e-84 3.11181e-83 1.46214e-82 6.79208e-82 3.11892e-81 1.41561e-80 6.34989e-80 2.81463e-79 1.2327e-78 5.33351e-78 2.27949e-77 9.62215e-77 4.01106e-76 1.65096e-75 6.70886e-75 2.6911e-74 1.06542e-73 4.16247e-73 1.60457e-72 6.1021e-72 2.28897e-71 8.46789e-71 3.08895e-70 1.1109e-69 3.93818e-69 1.37592e-68 4.73692e-68 1.60665e-67 5.36771e-67 1.76612e-66 5.72173e-66 1.82486e-65 5.72843e-65 1.76954e-64 5.37787e-64 1.60766e-63 4.72631e-63 1.36613e-62 3.88161e-62 1.08388e-61 2.97368e-61 8.0141e-61 2.12107e-60 5.51176e-60 1.40589e-59 3.51911e-59 8.64213e-59 2.08163e-58 4.91667e-58 1.13843e-57 2.58343e-57 5.74414e-57 1.25106e-56 2.66831e-56 5.5717e-56 1.13872e-55 2.27724e-55 4.45504e-55 8.52385e-55 1.59461e-54 2.91611e-54 5.21179e-54 9.10138e-54 1.55267e-53 2.58718e-53 4.20994e-53 6.68916e-53 1.03769e-52 1.57156e-52 2.32354e-52 3.35378e-52 4.72619e-52 6.50337e-52 8.73984e-52 1.14743e-51 1.47221e-51 1.84687e-51 2.2666e-51 2.72328e-51 3.20585e-51 3.70124e-51 4.19544e-51 4.67484e-51 5.12744e-51 5.54379e-51 5.9176e-51 6.24582e-51 6.52838e-51 6.76746e-51 6.96672e-51 7.13029e-51 7.26197e-51 7.36453e-51 7.43931e-51 7.48612e-51 7.50339e-51 7.48873e-51 7.43966e-51 7.35453e-51 7.23341e-51 7.07895e-51 6.89686e-51 6.69597e-51 6.48788e-51 6.28596e-51 6.10412e-51 5.95527e-51 5.84984e-51 5.7946e-51 5.7919e-51 5.83958e-51 5.93141e-51 6.05798e-51 6.20805e-51 6.3698e-51 6.53209e-51 6.68539e-51 6.82233e-51 6.93797e-51 7.02965e-51 7.09673e-51 7.14021e-51 7.16228e-51 7.16599e-51 7.15488e-51 7.13271e-51 7.10327e-51 7.07017e-51 7.03671e-51 7.00576e-51 6.97973e-51 6.9606e-51 6.94995e-51 6.94905e-51 6.95887e-51 6.98015e-51 7.01329e-51 7.05831e-51 7.11472e-51 7.18151e-51 7.25718e-51 7.33985e-51 7.42755e-51 7.51845e-51 7.61109e-51 7.70451e-51 7.79812e-51 7.89147e-51 7.98382e-51 8.07366e-51 8.15846e-51 8.23451e-51 8.2972e-51 8.34161e-51 8.36326e-51 8.35901e-51 8.32775e-51 8.27077e-51 8.1917e-51 8.09589e-51 7.98954e-51 7.87851e-51 7.76718e-51 7.65768e-51 7.54936e-51 7.4389e-51 7.32084e-51 7.18851e-51 7.03502e-51 6.85441e-51 6.64237e-51 6.39677e-51 6.11774e-51 5.8074e-51 5.46939e-51 5.10828e-51 4.72912e-51 4.33706e-51 3.93726e-51 3.53489e-51 3.13526e-51 2.74391e-51 2.36655e-51 2.00888e-51 1.67628e-51 1.37336e-51 1.10358e-51 8.68952e-52 6.699e-52 5.053e-52 3.72712e-52 2.68715e-52 1.89303e-52 1.30277e-52 8.75688e-53 5.74865e-53 3.68557e-53 2.30768e-53 1.41126e-53 8.4303e-54 4.91978e-54 2.80533e-54 1.56329e-54 8.51526e-55 4.53477e-55 2.36162e-55 1.20301e-55 5.99564e-56 2.9243e-56 1.39617e-56 6.52679e-57 2.98826e-57 1.34032e-57 5.89096e-58 2.53783e-58 1.0719e-58 4.43987e-59 1.80395e-59 7.19163e-60 2.81376e-60 1.08072e-60 4.07578e-61 1.50968e-61 5.49338e-62 1.96415e-62 6.90227e-63 2.38445e-63 8.09954e-64 2.70584e-64 8.89219e-65 2.87521e-65 9.14898e-66 2.86542e-66 8.83068e-67 2.6634e-67 7.33752e-68 0 
0 3.60781e-96 2.12699e-95 1.20727e-94 6.78083e-94 3.77152e-93 2.07719e-92 1.13273e-91 6.11541e-91 3.26843e-90 1.72912e-89 9.05407e-89 4.69196e-88 2.40611e-87 1.22091e-86 6.12937e-86 3.04417e-85 1.49554e-84 7.26705e-84 3.49222e-83 1.65952e-82 7.79743e-82 3.6221e-81 1.66326e-80 7.54912e-80 3.38626e-79 1.501e-78 6.57383e-78 2.84435e-77 1.21567e-76 5.13172e-76 2.13926e-75 8.8056e-75 3.5784e-74 1.43546e-73 5.68333e-73 2.22055e-72 8.56048e-72 3.25573e-71 1.22136e-70 4.5187e-70 1.6485e-69 5.92918e-69 2.10212e-68 7.34521e-68 2.52904e-67 8.57892e-67 2.86653e-66 9.43288e-66 3.05642e-65 9.74939e-65 3.06091e-64 9.45678e-64 2.87452e-63 8.5946e-63 2.52714e-62 7.306e-62 2.07626e-61 5.79874e-61 1.59124e-60 4.28929e-60 1.13547e-59 2.95125e-59 7.52946e-59 1.88513e-58 4.63051e-58 1.11561e-57 2.63561e-57 6.10408e-57 1.38552e-56 3.08139e-56 6.7128e-56 1.43208e-55 2.99105e-55 6.11443e-55 1.22307e-54 2.39329e-54 4.58014e-54 8.57028e-54 1.56762e-53 2.80229e-53 4.89466e-53 8.35178e-53 1.39189e-52 2.26532e-52 3.59992e-52 5.58536e-52 8.46002e-52 1.25095e-51 1.80579e-51 2.54495e-51 3.50214e-51 4.7067e-51 6.17947e-51 7.92858e-51 9.94613e-51 1.22061e-50 1.46646e-50 1.72619e-50 1.99275e-50 2.25859e-50 2.51637e-50 2.75964e-50 2.98331e-50 3.18402e-50 3.36015e-50 3.51167e-50 3.63979e-50 3.7465e-50 3.83405e-50 3.90448e-50 3.95931e-50 3.99928e-50 4.02426e-50 4.03345e-50 4.02554e-50 3.99922e-50 3.95358e-50 3.88865e-50 3.80586e-50 3.70825e-50 3.60057e-50 3.48902e-50 3.38078e-50 3.28331e-50 3.20354e-50 3.14705e-50 3.11748e-50 3.11609e-50 3.14172e-50 3.191e-50 3.25892e-50 3.33941e-50 3.42616e-50 3.51317e-50 3.59535e-50 3.66875e-50 3.73071e-50 3.77982e-50 3.81575e-50 3.83902e-50 3.85083e-50 3.8528e-50 3.84682e-50 3.83493e-50 3.81916e-50 3.80143e-50 3.7835e-50 3.76693e-50 3.75299e-50 3.74274e-50 3.73704e-50 3.73654e-50 3.74179e-50 3.75317e-50 3.77089e-50 3.79497e-50 3.82515e-50 3.86089e-50 3.90138e-50 3.94563e-50 3.99257e-50 4.04122e-50 4.09081e-50 4.14082e-50 4.19094e-50 4.24093e-50 4.29039e-50 4.33852e-50 4.38396e-50 4.42473e-50 4.45834e-50 4.48217e-50 4.4938e-50 4.49154e-50 4.47481e-50 4.44429e-50 4.40192e-50 4.35059e-50 4.29361e-50 4.23412e-50 4.17449e-50 4.11585e-50 4.05785e-50 3.99871e-50 3.93552e-50 3.86468e-50 3.78251e-50 3.68581e-50 3.57225e-50 3.44069e-50 3.29118e-50 3.12485e-50 2.94362e-50 2.74994e-50 2.54648e-50 2.33599e-50 2.12122e-50 1.90495e-50 1.69002e-50 1.47943e-50 1.27624e-50 1.08357e-50 9.04316e-51 7.40997e-51 5.955e-51 4.6893e-51 3.6153e-51 2.72705e-51 2.01148e-51 1.45018e-51 1.02157e-51 7.02981e-52 4.72483e-52 3.10138e-52 1.9881e-52 1.24465e-52 7.61046e-53 4.54544e-53 2.65216e-53 1.51202e-53 8.42413e-54 4.58769e-54 2.44264e-54 1.2718e-54 6.47708e-55 3.22736e-55 1.57374e-55 7.51189e-56 3.51082e-56 1.60703e-56 7.20633e-57 3.16657e-57 1.36384e-57 5.75911e-58 2.38491e-58 9.68788e-59 3.86131e-59 1.51043e-59 5.80006e-60 2.18695e-60 8.09885e-61 2.94639e-61 1.05327e-61 3.70061e-62 1.27817e-62 4.34093e-63 1.44994e-63 4.76412e-64 1.54018e-64 4.90012e-65 1.53447e-65 4.72825e-66 1.42588e-66 3.92778e-67 0 