# vtk DataFile Version 3.0
Gray-Scott Simulation Output
ASCII
DATASET STRUCTURED_POINTS
DIMENSIONS 256 256 1
SPACING 1.0 1.0 1.0
ORIGIN 0 0 0
POINT_DATA 65536
SCALARS u double
LOOKUP_TABLE default
0 0 0 0 0 0 0 0 0 0 0 0 0 0 0 0 0 0 0 0 0 0 0 0 0 0 0 0 0 0 0 0 0 0 0 0 0 0 0 0 0 0 0 0 0 0 0 0 0 0 0 0 0 0 0 0 0 0 0 0 0 0 0 0 0 0 0 0 0 0 0 0 0 0 0 0 0 0 0 0 0 0 0 0 0 0 0 0 0 0 0 0 0 0 0 0 0 0 0 0 0 0 0 0 0 0 0 0 0 0 0 0 0 0 0 0 0 0 0 0 0 0 0 0 0 0 0 0 0 0 0 0 0 0 0 0 0 0 0 0 0 0 0 0 0 0 0 0 0 0 0 0 0 0 0 0 0 0 0 0 0 0 0 0 0 0 0 0 0 0 0 0 0 0 0 0 0 0 0 0 0 0 0 0 0 0 0 0 0 0 0 0 0 0 0 0 0 0 0 0 0 0 0 0 0 0 0 0 0 0 0 0 0 0 0 0 0 0 0 0 0 0 0 0 0 0 0 0 0 0 0 0 0 0 0 0 0 0 0 0 0 0 0 0 0 0 0 0 0 0 0 0 0 0 0 0 
0 6.57043e-79 2.43649e-78 8.32474e-78 2.8042e-77 9.36228e-77 3.09926e-76 1.01725e-75 3.31031e-75 1.06795e-74 3.41545e-74 1.08277e-73 3.40238e-73 1.05966e-72 3.27078e-72 1.0005e-71 3.03269e-71 9.10874e-71 2.71068e-70 7.99203e-70 2.33435e-69 6.75415e-69 1.93572e-68 5.49479e-68 1.54476e-67 4.30075e-67 1.18567e-66 3.23659e-66 8.74749e-66 2.34054e-65 6.19942e-65 1.62537e-64 4.21782e-64 1.08323e-63 2.75302e-63 6.92347e-63 1.72276e-62 4.24104e-62 1.03284e-61 2.48807e-61 5.92826e-61 1.39696e-60 3.25534e-60 7.50105e-60 1.70892e-59 3.84903e-59 8.56983e-59 1.886e-58 4.10221e-58 8.81777e-58 1.87292e-57 3.93061e-57 8.14956e-57 1.66916e-56 3.37684e-56 6.74724e-56 1.33137e-55 2.5941e-55 4.99051e-55 9.47826e-55 1.77702e-54 3.28848e-54 6.00606e-54 1.08252e-53 1.92524e-53 3.37831e-53 5.84838e-53 9.9874e-53 1.68232e-52 2.7949e-52 4.57916e-52 7.39828e-52 1.1786e-51 1.85122e-51 2.86667e-51 4.37616e-51 6.58535e-51 9.76814e-51 1.42815e-50 2.05799e-50 2.9229e-50 4.09142e-50 5.64447e-50 7.67474e-50 1.0285e-49 1.35851e-49 1.76874e-49 2.27007e-49 2.8723e-49 3.58336e-49 4.40843e-49 5.34918e-49 6.40309e-49 7.56305e-49 8.81719e-49 1.01491e-48 1.15383e-48 1.29615e-48 1.43931e-48 1.58073e-48 1.7179e-48 1.84852e-48 1.97063e-48 2.08264e-48 2.18346e-48 2.2724e-48 2.34923e-48 2.41404e-48 2.46722e-48 2.50935e-48 2.54113e-48 2.56329e-48 2.57657e-48 2.58167e-48 2.57929e-48 2.57012e-48 2.55489e-48 2.5344e-48 2.50958e-48 2.48146e-48 2.45124e-48 2.42021e-48 2.38973e-48 2.36118e-48 2.33585e-48 2.31489e-48 2.29922e-48 2.28946e-48 2.28591e-48 2.2885e-48 2.29684e-48 2.31024e-48 2.32776e-48 2.34832e-48 2.37074e-48 2.39386e-48 2.41661e-48 2.43805e-48 2.45743e-48 2.4742e-48 2.48807e-48 2.49894e-48 2.50688e-48 2.51218e-48 2.5152e-48 2.51642e-48 2.51638e-48 2.51563e-48 2.51471e-48 2.51414e-48 2.51439e-48 2.51586e-48 2.5189e-48 2.52375e-48 2.5306e-48 2.53955e-48 2.55063e-48 2.5638e-48 2.57894e-48 2.59588e-48 2.6144e-48 2.63422e-48 2.65502e-48 2.67643e-48 2.69806e-48 2.71945e-48 2.74014e-48 2.75962e-48 2.77737e-48 2.79289e-48 2.80569e-48 2.81532e-48 2.82141e-48 2.82368e-48 2.82195e-48 2.81617e-48 2.80637e-48 2.79269e-48 2.7753e-48 2.75442e-48 2.73022e-48 2.70284e-48 2.67229e-48 2.6385e-48 2.60126e-48 2.56026e-48 2.51507e-48 2.46522e-48 2.41019e-48 2.34947e-48 2.28262e-48 2.20927e-48 2.12918e-48 2.04228e-48 1.94866e-48 1.84863e-48 1.7427e-48 1.63162e-48 1.51635e-48 1.39804e-48 1.27803e-48 1.15777e-48 1.03881e-48 9.22691e-49 8.10906e-49 7.04817e-49 6.05601e-49 5.14194e-49 4.31259e-49 3.57172e-49 2.92022e-49 2.35635e-49 1.87606e-49 1.47351e-49 1.14153e-49 8.72131e-50 6.57037e-50 4.88056e-50 3.57429e-50 2.58064e-50 1.83682e-50 1.28884e-50 8.91508e-51 6.07918e-51 4.08666e-51 2.70837e-51 1.76963e-51 1.14001e-51 7.24131e-52 4.53555e-52 2.80141e-52 1.70644e-52 1.02519e-52 6.07512e-53 3.55122e-53 2.0479e-53 1.16518e-53 6.54129e-54 3.62382e-54 1.98126e-54 1.06913e-54 5.69478e-55 2.9945e-55 1.55458e-55 7.96875e-56 4.03364e-56 2.0164e-56 9.95573e-57 4.85541e-57 2.33919e-57 1.11317e-57 5.22893e-58 2.41482e-58 1.07367e-58 4.06496e-59 0 
0 2.43211e-78 9.02024e-78 3.08248e-77 1.03853e-76 3.46796e-76 1.14825e-75 3.76957e-75 1.22693e-74 3.95906e-74 1.26644e-73 4.01574e-73 1.26215e-72 3.93181e-72 1.2139e-71 3.71408e-71 1.12608e-70 3.38306e-70 1.00703e-69 2.96986e-69 8.67682e-69 2.51123e-68 7.19914e-68 2.04415e-67 5.74845e-67 1.60089e-66 4.41483e-66 1.20552e-65 3.25917e-65 8.72327e-65 2.3113e-64 6.06184e-64 1.57357e-63 4.04266e-63 1.02781e-62 2.58571e-62 6.43633e-62 1.58507e-61 3.86162e-61 9.30604e-61 2.21818e-60 5.22906e-60 1.21901e-59 2.80999e-59 6.40441e-59 1.44307e-58 3.2143e-58 7.07679e-58 1.53991e-57 3.31145e-57 7.03663e-57 1.47737e-56 3.06444e-56 6.27917e-56 1.27087e-55 2.54042e-55 5.01494e-55 9.77555e-55 1.88142e-54 3.57483e-54 6.70509e-54 1.24134e-53 2.26812e-53 4.08969e-53 7.27642e-53 1.27734e-52 2.21215e-52 3.77918e-52 6.3682e-52 1.05836e-51 1.73462e-51 2.80348e-51 4.46759e-51 7.01941e-51 1.08729e-50 1.66028e-50 2.49907e-50 3.70778e-50 5.4221e-50 7.81486e-50 1.1101e-49 1.55412e-49 2.14428e-49 2.91581e-49 3.90773e-49 5.16171e-49 6.72033e-49 8.62476e-49 1.0912e-48 1.36119e-48 1.67435e-48 2.03129e-48 2.43096e-48 2.87062e-48 3.34566e-48 3.84979e-48 4.3752e-48 4.91292e-48 5.45328e-48 5.98643e-48 6.50286e-48 6.9939e-48 7.45216e-48 7.87179e-48 8.24868e-48 8.58042e-48 8.8662e-48 9.10658e-48 9.30314e-48 9.45822e-48 9.57451e-48 9.65488e-48 9.70216e-48 9.71906e-48 9.70819e-48 9.67217e-48 9.6137e-48 9.53578e-48 9.44181e-48 9.3357e-48 9.22183e-48 9.10505e-48 8.99044e-48 8.88312e-48 8.78795e-48 8.70922e-48 8.65035e-48 8.61369e-48 8.60032e-48 8.61001e-48 8.64128e-48 8.6915e-48 8.75719e-48 8.83425e-48 8.91828e-48 9.00492e-48 9.09014e-48 9.1704e-48 9.2429e-48 9.30566e-48 9.35749e-48 9.39804e-48 9.42765e-48 9.44732e-48 9.45847e-48 9.4629e-48 9.4626e-48 9.45964e-48 9.45608e-48 9.45384e-48 9.45468e-48 9.46012e-48 9.47141e-48 9.48953e-48 9.51516e-48 9.54867e-48 9.59016e-48 9.63947e-48 9.69619e-48 9.75967e-48 9.82906e-48 9.90334e-48 9.9813e-48 1.00616e-47 1.01427e-47 1.02229e-47 1.03005e-47 1.03736e-47 1.04402e-47 1.04985e-47 1.05465e-47 1.05827e-47 1.06056e-47 1.06142e-47 1.06079e-47 1.05863e-47 1.05498e-47 1.04987e-47 1.04338e-47 1.03558e-47 1.02655e-47 1.01634e-47 1.00495e-47 9.92367e-48 9.78505e-48 9.63248e-48 9.46439e-48 9.27897e-48 9.07426e-48 8.84834e-48 8.59948e-48 8.32624e-48 8.02767e-48 7.70338e-48 7.35367e-48 6.97958e-48 6.58298e-48 6.16657e-48 5.73391e-48 5.2893e-48 4.83775e-48 4.38476e-48 3.93615e-48 3.49779e-48 3.07538e-48 2.67414e-48 2.29857e-48 1.9523e-48 1.63792e-48 1.3569e-48 1.10965e-48 8.95561e-49 7.13136e-49 5.60186e-49 4.34012e-49 3.31604e-49 2.49825e-49 1.85571e-49 1.35897e-49 9.81106e-50 6.98251e-50 4.89879e-50 3.38802e-50 2.30988e-50 1.55248e-50 1.02865e-50 6.71953e-51 4.32768e-51 2.74817e-51 1.72079e-51 1.06254e-51 6.47023e-52 3.88589e-52 2.30193e-52 1.34512e-52 7.75421e-53 4.41022e-53 2.47496e-53 1.37059e-53 7.49054e-54 4.04048e-54 2.15134e-54 1.13079e-54 5.86811e-55 3.00677e-55 1.52136e-55 7.60216e-56 3.75196e-56 1.82909e-56 8.80848e-57 4.19011e-57 1.96745e-57 9.08259e-58 4.03685e-58 1.52797e-58 0 
0 8.29242e-78 3.07604e-77 1.05139e-76 3.54304e-76 1.18339e-75 3.91912e-75 1.28691e-74 4.18966e-74 1.35225e-73 4.32672e-73 1.37231e-72 4.31434e-72 1.34435e-71 4.15167e-71 1.27062e-70 3.85354e-70 1.15806e-69 3.44821e-69 1.01724e-68 2.97292e-68 8.60696e-68 2.46824e-67 7.01079e-67 1.97222e-66 5.49438e-66 1.51575e-65 4.14042e-65 1.1198e-64 2.99831e-64 7.94734e-64 2.08516e-63 5.41497e-63 1.39173e-62 3.53979e-62 8.90901e-62 2.21857e-61 5.46601e-61 1.33224e-60 3.21198e-60 7.65951e-60 1.80645e-59 4.2132e-59 9.7166e-59 2.21562e-58 4.99471e-58 1.11307e-57 2.45179e-57 5.33773e-57 1.14841e-56 2.44151e-56 5.12865e-56 1.06435e-55 2.182e-55 4.41851e-55 8.83688e-55 1.74535e-54 3.4039e-54 6.55454e-54 1.24604e-53 2.33829e-53 4.33111e-53 7.91753e-53 1.42832e-52 2.5425e-52 4.46535e-52 7.73685e-52 1.32234e-51 2.22924e-51 3.70645e-51 6.0773e-51 9.82601e-51 1.56646e-50 2.4621e-50 3.81507e-50 5.82745e-50 8.77419e-50 1.30216e-49 1.9047e-49 2.74586e-49 3.90126e-49 5.46259e-49 7.53797e-49 1.02512e-48 1.37394e-48 1.81489e-48 2.36288e-48 3.03234e-48 3.83616e-48 4.78468e-48 5.88447e-48 7.13736e-48 8.53951e-48 1.00809e-47 1.17451e-47 1.35097e-47 1.53469e-47 1.72251e-47 1.91101e-47 2.09673e-47 2.27634e-47 2.44682e-47 2.6056e-47 2.75066e-47 2.88063e-47 2.9947e-47 3.09266e-47 3.17475e-47 3.24159e-47 3.29404e-47 3.33309e-47 3.35977e-47 3.37508e-47 3.38e-47 3.37543e-47 3.36228e-47 3.34147e-47 3.31404e-47 3.28114e-47 3.24412e-47 3.20448e-47 3.16388e-47 3.12407e-47 3.08681e-47 3.05379e-47 3.02647e-47 3.00606e-47 2.99334e-47 2.98869e-47 2.99203e-47 3.00285e-47 3.02023e-47 3.04297e-47 3.06963e-47 3.0987e-47 3.12866e-47 3.15812e-47 3.18585e-47 3.2109e-47 3.23255e-47 3.25042e-47 3.26438e-47 3.27456e-47 3.28129e-47 3.28508e-47 3.28655e-47 3.28638e-47 3.2853e-47 3.28402e-47 3.2832e-47 3.28345e-47 3.2853e-47 3.28918e-47 3.29543e-47 3.30427e-47 3.31585e-47 3.33019e-47 3.34724e-47 3.36685e-47 3.3888e-47 3.41281e-47 3.4385e-47 3.46548e-47 3.49326e-47 3.52133e-47 3.5491e-47 3.57597e-47 3.60128e-47 3.62437e-47 3.64456e-47 3.66123e-47 3.67379e-47 3.68176e-47 3.68478e-47 3.68263e-47 3.67523e-47 3.66265e-47 3.64505e-47 3.62268e-47 3.59584e-47 3.56477e-47 3.52965e-47 3.49052e-47 3.4473e-47 3.39974e-47 3.34741e-47 3.28979e-47 3.22623e-47 3.15606e-47 3.07859e-47 2.9932e-47 2.89938e-47 2.79675e-47 2.68517e-47 2.56468e-47 2.43562e-47 2.2986e-47 2.15452e-47 2.0046e-47 1.85031e-47 1.69338e-47 1.53574e-47 1.37941e-47 1.22646e-47 1.07891e-47 9.38598e-48 8.07136e-48 6.85822e-48 5.7559e-48 4.76988e-48 3.9018e-48 3.14973e-48 2.50859e-48 1.97084e-48 1.52709e-48 1.16684e-48 8.79092e-49 6.52981e-49 4.78166e-49 3.4518e-49 2.45634e-49 1.72306e-49 1.19146e-49 8.12138e-50 5.45712e-50 3.61489e-50 2.3607e-50 1.51994e-50 9.64877e-51 6.03962e-51 3.72793e-51 2.26924e-51 1.36233e-51 8.06696e-52 4.71194e-52 2.71513e-52 1.54357e-52 8.6585e-53 4.79275e-53 2.61815e-53 1.41161e-53 7.51255e-54 3.94692e-54 2.04725e-54 1.0485e-54 5.30265e-55 2.64845e-55 1.30649e-55 6.36619e-56 3.06436e-56 1.457e-56 6.83813e-57 3.15535e-57 1.40185e-57 5.30446e-58 0 
0 2.78728e-77 1.03412e-76 3.53539e-76 1.19164e-75 3.98107e-75 1.31875e-74 4.33141e-74 1.41049e-73 4.55367e-73 1.45739e-72 4.62369e-72 1.45402e-71 4.53203e-71 1.4e-70 4.28597e-70 1.30025e-69 3.90869e-69 1.16421e-68 3.4356e-68 1.00441e-67 2.90886e-67 8.3447e-67 2.37106e-66 6.67249e-66 1.85957e-65 5.13195e-65 1.40238e-64 3.7943e-64 1.01635e-63 2.69502e-63 7.07392e-63 1.8378e-62 4.72544e-62 1.20241e-61 3.02759e-61 7.54285e-61 1.85922e-60 4.53361e-60 1.09355e-59 2.60898e-59 6.15611e-59 1.43649e-58 3.31451e-58 7.56165e-58 1.7055e-57 3.80262e-57 8.38048e-57 1.82544e-56 3.92946e-56 8.35843e-56 1.7567e-55 3.64761e-55 7.48191e-55 1.51588e-54 3.03334e-54 5.99427e-54 1.16967e-53 2.25352e-53 4.28627e-53 8.04779e-53 1.49144e-52 2.72786e-52 4.92357e-52 8.76872e-52 1.5408e-51 2.67096e-51 4.56726e-51 7.70317e-51 1.28135e-50 2.1019e-50 3.39986e-50 5.42227e-50 8.52579e-50 1.32157e-49 2.01937e-49 3.04146e-49 4.51509e-49 6.6061e-49 9.52578e-49 1.35369e-48 1.89578e-48 2.61641e-48 3.55854e-48 4.76975e-48 6.30073e-48 8.20312e-48 1.05267e-47 1.33159e-47 1.66061e-47 2.04194e-47 2.47614e-47 2.96177e-47 3.49525e-47 4.07079e-47 4.68047e-47 5.31458e-47 5.96206e-47 6.61102e-47 7.24944e-47 7.86579e-47 8.44966e-47 8.99228e-47 9.48685e-47 9.92871e-47 1.03154e-46 1.06462e-46 1.09223e-46 1.11461e-46 1.13206e-46 1.14495e-46 1.15363e-46 1.15847e-46 1.15981e-46 1.15795e-46 1.1532e-46 1.14589e-46 1.13635e-46 1.12498e-46 1.11223e-46 1.09861e-46 1.08468e-46 1.07104e-46 1.05828e-46 1.04697e-46 1.03762e-46 1.03063e-46 1.02628e-46 1.02469e-46 1.02583e-46 1.02952e-46 1.03545e-46 1.04321e-46 1.05231e-46 1.06223e-46 1.07245e-46 1.0825e-46 1.09195e-46 1.10048e-46 1.10785e-46 1.11393e-46 1.11867e-46 1.12212e-46 1.12439e-46 1.12566e-46 1.12613e-46 1.12606e-46 1.12567e-46 1.12521e-46 1.12492e-46 1.12499e-46 1.12561e-46 1.12692e-46 1.12904e-46 1.13206e-46 1.136e-46 1.14089e-46 1.1467e-46 1.15339e-46 1.16088e-46 1.16908e-46 1.17785e-46 1.18705e-46 1.19654e-46 1.20612e-46 1.21561e-46 1.22479e-46 1.23343e-46 1.24133e-46 1.24823e-46 1.25393e-46 1.25823e-46 1.26097e-46 1.26202e-46 1.2613e-46 1.25879e-46 1.25452e-46 1.24854e-46 1.24095e-46 1.23183e-46 1.22129e-46 1.20938e-46 1.19612e-46 1.18149e-46 1.1654e-46 1.14771e-46 1.12824e-46 1.10677e-46 1.08306e-46 1.05688e-46 1.028e-46 9.96247e-47 9.61477e-47 9.23623e-47 8.82695e-47 8.3879e-47 7.92105e-47 7.4294e-47 6.91697e-47 6.38879e-47 5.85075e-47 5.30943e-47 4.77188e-47 4.24526e-47 3.73656e-47 3.25228e-47 2.79808e-47 2.37853e-47 1.99699e-47 1.65545e-47 1.35456e-47 1.09373e-47 8.71267e-48 6.84601e-48 5.30513e-48 4.05384e-48 3.05422e-48 2.2686e-48 1.66116e-48 1.19905e-48 8.53147e-49 5.98363e-49 4.13676e-49 2.81913e-49 1.89383e-49 1.25416e-49 8.18783e-50 5.27003e-50 3.34435e-50 2.09263e-50 1.29118e-50 7.85646e-51 4.71466e-51 2.79057e-51 1.62927e-51 9.38408e-52 5.33246e-52 2.9898e-52 1.65417e-52 9.03194e-53 4.86733e-53 2.58912e-53 1.35959e-53 7.04865e-54 3.60817e-54 1.82388e-54 9.10498e-55 4.48929e-55 2.18642e-55 1.05191e-55 4.99903e-56 2.34504e-56 1.08157e-56 4.80313e-57 1.81686e-57 0 
0 9.28539e-77 3.44566e-76 1.17825e-75 3.97234e-75 1.32741e-74 4.3982e-74 1.44494e-73 4.70656e-73 1.51988e-72 4.86568e-72 1.5441e-71 4.85714e-71 1.51436e-70 4.67946e-70 1.43301e-69 4.34873e-69 1.30769e-68 3.89628e-68 1.15018e-67 3.36372e-67 9.74506e-67 2.79659e-66 7.94912e-66 2.23782e-65 6.23898e-65 1.72247e-64 4.70877e-64 1.27452e-63 3.41535e-63 9.06019e-63 2.37914e-62 6.18366e-62 1.59067e-61 4.04936e-61 1.02006e-60 2.54253e-60 6.26995e-60 1.52962e-59 3.69137e-59 8.81119e-59 2.08011e-58 4.85624e-58 1.12108e-57 2.55893e-57 5.77458e-57 1.28819e-56 2.84051e-56 6.19051e-56 1.3333e-55 2.83762e-55 5.96713e-55 1.23969e-54 2.54424e-54 5.15764e-54 1.03264e-53 2.04175e-53 3.98631e-53 7.68436e-53 1.4624e-52 2.74726e-52 5.09407e-52 9.32212e-52 1.68347e-51 2.99977e-51 5.27379e-51 9.14669e-51 1.56483e-50 2.64054e-50 4.39435e-50 7.21168e-50 1.16702e-49 1.862e-49 2.92892e-49 4.5418e-49 6.94238e-49 1.04597e-48 1.55324e-48 2.2732e-48 3.27869e-48 4.66028e-48 6.52772e-48 9.0104e-48 1.22563e-47 1.64291e-47 2.17032e-47 2.82559e-47 3.62576e-47 4.58603e-47 5.71835e-47 7.03015e-47 8.52302e-47 1.01917e-46 1.20235e-46 1.3998e-46 1.60876e-46 1.82586e-46 2.04725e-46 2.26884e-46 2.48647e-46 2.6962e-46 2.89447e-46 3.07831e-46 3.24543e-46 3.3943e-46 3.52413e-46 3.63481e-46 3.72677e-46 3.80089e-46 3.85831e-46 3.9003e-46 3.92817e-46 3.94316e-46 3.94642e-46 3.93904e-46 3.92206e-46 3.89654e-46 3.86363e-46 3.82465e-46 3.7811e-46 3.73469e-46 3.68729e-46 3.64092e-46 3.59758e-46 3.55919e-46 3.52746e-46 3.50374e-46 3.48896e-46 3.48354e-46 3.48738e-46 3.49987e-46 3.51995e-46 3.54622e-46 3.57702e-46 3.61058e-46 3.64516e-46 3.67912e-46 3.71106e-46 3.73987e-46 3.76475e-46 3.78523e-46 3.80118e-46 3.81276e-46 3.82036e-46 3.82456e-46 3.82609e-46 3.82575e-46 3.82436e-46 3.82276e-46 3.8217e-46 3.8219e-46 3.82395e-46 3.82836e-46 3.83552e-46 3.84568e-46 3.85901e-46 3.87553e-46 3.89519e-46 3.91782e-46 3.94316e-46 3.97087e-46 4.00055e-46 4.03172e-46 4.06382e-46 4.09627e-46 4.12839e-46 4.15948e-46 4.18878e-46 4.21552e-46 4.23893e-46 4.25828e-46 4.27288e-46 4.2822e-46 4.2858e-46 4.28343e-46 4.27502e-46 4.26064e-46 4.24051e-46 4.21493e-46 4.18426e-46 4.14879e-46 4.10877e-46 4.06426e-46 4.01518e-46 3.96125e-46 3.90201e-46 3.83682e-46 3.76496e-46 3.6856e-46 3.59793e-46 3.50118e-46 3.39469e-46 3.27796e-46 3.15072e-46 3.01294e-46 2.86492e-46 2.70727e-46 2.54095e-46 2.36732e-46 2.18805e-46 2.00514e-46 1.82082e-46 1.63751e-46 1.45768e-46 1.28374e-46 1.11796e-46 9.62293e-47 8.18367e-47 6.87363e-47 5.70001e-47 4.66538e-47 3.76796e-47 3.00217e-47 2.35933e-47 1.82849e-47 1.3973e-47 1.05277e-47 7.81954e-48 5.72541e-48 4.13228e-48 2.9398e-48 2.06151e-48 1.42493e-48 9.70841e-49 6.52021e-49 4.31667e-49 2.81728e-49 1.81271e-49 1.14993e-49 7.19267e-50 4.43622e-50 2.69821e-50 1.61851e-50 9.57562e-51 5.58819e-51 3.21713e-51 1.82725e-51 1.02401e-51 5.66278e-52 3.09041e-52 1.66459e-52 8.85012e-53 4.645e-53 2.40691e-53 1.23145e-53 6.22162e-54 3.10429e-54 1.52981e-54 7.44681e-55 3.5809e-55 1.7009e-55 7.97489e-56 3.67635e-56 1.6319e-56 6.17086e-57 0 
0 3.06699e-76 1.13833e-75 3.89342e-75 1.31294e-74 4.38844e-74 1.45442e-73 4.77945e-73 1.55721e-72 5.03004e-72 1.61074e-71 5.11308e-71 1.60885e-70 5.01757e-70 1.55093e-69 4.75098e-69 1.44223e-68 4.33832e-68 1.29304e-67 3.81834e-67 1.11708e-66 3.23745e-66 9.29406e-66 2.64277e-65 7.44269e-65 2.07581e-64 5.73323e-64 1.56795e-63 4.2457e-63 1.1382e-62 3.02071e-62 7.93561e-62 2.06348e-61 5.31044e-61 1.3525e-60 3.40863e-60 8.50013e-60 2.09717e-59 5.11879e-59 1.23591e-58 2.95156e-58 6.97148e-58 1.62841e-57 3.76123e-57 8.58976e-57 1.93944e-56 4.32883e-56 9.55047e-56 2.08255e-55 4.48783e-55 9.55669e-55 2.01077e-54 4.17983e-54 8.5832e-54 1.74096e-53 3.48766e-53 6.89983e-53 1.34789e-52 2.5998e-52 4.95045e-52 9.30517e-52 1.72637e-51 3.161e-51 5.71154e-51 1.01829e-50 1.79118e-50 3.1082e-50 5.32029e-50 8.98209e-50 1.49552e-49 2.45549e-49 3.97537e-49 6.34555e-49 9.98569e-49 1.54907e-48 2.36871e-48 3.57005e-48 5.3031e-48 7.76346e-48 1.12003e-47 1.59236e-47 2.23087e-47 3.07981e-47 4.18977e-47 5.61667e-47 7.41999e-47 9.66017e-47 1.23952e-46 1.56764e-46 1.95442e-46 2.40229e-46 2.91171e-46 3.48076e-46 4.10495e-46 4.77719e-46 5.48789e-46 6.22542e-46 6.97655e-46 7.7272e-46 8.46321e-46 9.17113e-46 9.83892e-46 1.04566e-45 1.10165e-45 1.15137e-45 1.19457e-45 1.23125e-45 1.26157e-45 1.28587e-45 1.30455e-45 1.31807e-45 1.32687e-45 1.3314e-45 1.33205e-45 1.32918e-45 1.32315e-45 1.31431e-45 1.30305e-45 1.28978e-45 1.27502e-45 1.25933e-45 1.24333e-45 1.22769e-45 1.21309e-45 1.20016e-45 1.18947e-45 1.18149e-45 1.17651e-45 1.17468e-45 1.17597e-45 1.18016e-45 1.1869e-45 1.19572e-45 1.20605e-45 1.21732e-45 1.22892e-45 1.2403e-45 1.25101e-45 1.26066e-45 1.26898e-45 1.27583e-45 1.28116e-45 1.28501e-45 1.28753e-45 1.28891e-45 1.28939e-45 1.28925e-45 1.28876e-45 1.2882e-45 1.28783e-45 1.28788e-45 1.28855e-45 1.29002e-45 1.29241e-45 1.29581e-45 1.30028e-45 1.30582e-45 1.31241e-45 1.32e-45 1.32851e-45 1.33781e-45 1.34777e-45 1.35823e-45 1.36901e-45 1.37991e-45 1.39069e-45 1.40114e-45 1.41099e-45 1.41998e-45 1.42785e-45 1.43436e-45 1.43928e-45 1.44242e-45 1.44365e-45 1.44288e-45 1.44008e-45 1.43528e-45 1.42856e-45 1.42002e-45 1.40978e-45 1.39796e-45 1.38462e-45 1.3698e-45 1.35348e-45 1.33557e-45 1.3159e-45 1.29427e-45 1.27043e-45 1.24411e-45 1.21502e-45 1.1829e-45 1.1475e-45 1.10867e-45 1.06627e-45 1.0203e-45 9.70821e-46 9.18034e-46 8.62249e-46 8.03904e-46 7.43558e-46 6.81879e-46 6.19625e-46 5.57613e-46 4.96687e-46 4.37679e-46 3.81365e-46 3.2843e-46 2.79436e-46 2.34799e-46 1.94778e-46 1.59472e-46 1.2883e-46 1.02668e-46 8.06964e-47 6.2547e-47 4.78004e-47 3.60148e-47 2.67497e-47 1.95847e-47 1.41337e-47 1.00536e-47 7.04875e-48 4.87113e-48 3.31803e-48 2.2278e-48 1.47446e-48 9.62e-49 6.18762e-49 3.9238e-49 2.45333e-49 1.51252e-49 9.19561e-50 5.51351e-50 3.26049e-50 1.90188e-50 1.09439e-50 6.21286e-51 3.48002e-51 1.92347e-51 1.04918e-51 5.6483e-52 3.00146e-52 1.57449e-52 8.15427e-53 4.16978e-53 2.10556e-53 1.05002e-53 5.17178e-54 2.51619e-54 1.2093e-54 5.74107e-55 2.69038e-55 1.23962e-55 5.50004e-56 2.07907e-56 0 
0 1.0044e-75 3.72863e-75 1.2756e-74 4.30264e-74 1.43849e-73 4.76871e-73 1.56749e-72 5.10847e-72 1.65058e-71 5.28707e-71 1.6788e-70 5.28398e-70 1.64844e-69 5.09694e-69 1.56185e-68 4.7428e-68 1.42714e-67 4.25507e-67 1.25697e-66 3.67864e-66 1.06652e-65 3.06291e-65 8.71271e-65 2.45468e-64 6.84899e-64 1.89241e-63 5.17759e-63 1.40259e-62 3.76174e-62 9.98777e-62 2.62504e-61 6.82893e-61 1.75827e-60 4.48019e-60 1.12966e-59 2.81843e-59 6.95714e-59 1.69896e-58 4.10416e-58 9.80653e-58 2.31748e-57 5.41612e-57 1.25167e-56 2.86007e-56 6.46115e-56 1.44294e-55 3.18527e-55 6.94966e-55 1.49849e-54 3.19284e-54 6.72178e-54 1.39809e-53 2.87263e-53 5.83009e-53 1.16863e-52 2.31333e-52 4.52179e-52 8.72671e-52 1.66269e-51 3.12712e-51 5.80503e-51 1.06352e-50 1.92275e-50 3.42994e-50 6.03661e-50 1.04809e-49 1.79496e-49 3.03196e-49 5.05077e-49 8.29691e-49 1.34388e-48 2.14609e-48 3.37867e-48 5.24343e-48 8.02092e-48 1.20932e-47 1.79698e-47 2.63147e-47 3.79745e-47 5.40013e-47 7.567e-47 1.04483e-46 1.42155e-46 1.90585e-46 2.51784e-46 3.27799e-46 4.20583e-46 5.31866e-46 6.6299e-46 8.14757e-46 9.87281e-46 1.17987e-45 1.39095e-45 1.61807e-45 1.85794e-45 2.10656e-45 2.35941e-45 2.6117e-45 2.85863e-45 3.09565e-45 3.31872e-45 3.5245e-45 3.71048e-45 3.87507e-45 4.01753e-45 4.13791e-45 4.23692e-45 4.31573e-45 4.3758e-45 4.41872e-45 4.44607e-45 4.45936e-45 4.45992e-45 4.449e-45 4.42776e-45 4.39736e-45 4.35905e-45 4.31425e-45 4.2646e-45 4.21195e-45 4.15837e-45 4.10607e-45 4.05725e-45 4.01406e-45 3.97838e-45 3.95171e-45 3.93509e-45 3.92896e-45 3.93322e-45 3.94717e-45 3.96962e-45 3.99898e-45 4.03339e-45 4.07087e-45 4.10946e-45 4.14733e-45 4.18292e-45 4.21497e-45 4.24259e-45 4.26529e-45 4.28291e-45 4.29564e-45 4.30391e-45 4.3084e-45 4.30991e-45 4.30934e-45 4.30763e-45 4.30569e-45 4.30438e-45 4.30449e-45 4.30669e-45 4.31153e-45 4.31946e-45 4.33075e-45 4.34559e-45 4.36402e-45 4.38595e-45 4.41121e-45 4.43951e-45 4.47046e-45 4.50363e-45 4.53846e-45 4.57436e-45 4.61065e-45 4.64659e-45 4.68139e-45 4.71422e-45 4.74419e-45 4.77046e-45 4.79218e-45 4.80863e-45 4.81916e-45 4.82331e-45 4.82081e-45 4.81157e-45 4.79569e-45 4.77344e-45 4.74517e-45 4.7113e-45 4.6722e-45 4.62814e-45 4.57926e-45 4.52546e-45 4.46647e-45 4.40176e-45 4.33066e-45 4.25231e-45 4.16579e-45 4.07014e-45 3.96444e-45 3.84789e-45 3.71982e-45 3.57982e-45 3.42776e-45 3.26382e-45 3.08859e-45 2.90305e-45 2.70864e-45 2.50717e-45 2.30089e-45 2.09231e-45 1.88421e-45 1.67943e-45 1.48082e-45 1.29102e-45 1.1124e-45 9.46906e-46 7.95984e-46 6.60554e-46 5.4099e-46 4.37154e-46 3.48453e-46 2.73927e-46 2.12341e-46 1.62288e-46 1.22277e-46 9.08177e-47 6.64872e-47 4.79765e-47 3.41217e-47 2.3919e-47 1.65259e-47 1.1254e-47 7.55407e-48 4.9981e-48 3.25988e-48 2.09601e-48 1.32865e-48 8.30396e-49 5.11738e-49 3.10982e-49 1.86374e-49 1.10163e-49 6.42285e-50 3.69404e-50 2.09604e-50 1.17346e-50 6.48254e-51 3.53411e-51 1.90158e-51 1.00994e-51 5.29502e-52 2.74079e-52 1.40077e-52 7.06941e-53 3.52349e-53 1.73452e-53 8.43422e-54 4.05136e-54 1.92231e-54 9.00353e-55 4.14632e-55 1.8388e-55 6.94837e-56 0 
0 3.26105e-75 1.21085e-74 4.14341e-74 1.39794e-73 4.67492e-73 1.55018e-72 5.09686e-72 1.66154e-71 5.37009e-71 1.72063e-70 5.46514e-70 1.72067e-69 5.36966e-69 1.66082e-68 5.09091e-68 1.54646e-67 4.65501e-67 1.3884e-66 4.10286e-66 1.20119e-65 3.48382e-65 1.0009e-64 2.84826e-64 8.0278e-64 2.24082e-63 6.19408e-63 1.69541e-62 4.59479e-62 1.23287e-61 3.27487e-61 8.61114e-61 2.24121e-60 5.77327e-60 1.47178e-59 3.71289e-59 9.26803e-59 2.28893e-58 5.59255e-58 1.3517e-57 3.23149e-57 7.64081e-57 1.78669e-56 4.13134e-56 9.44545e-56 2.13503e-55 4.7708e-55 1.05376e-54 2.30045e-54 4.9632e-54 1.05814e-53 2.229e-53 4.63896e-53 9.53739e-53 1.93682e-52 3.88468e-52 7.6945e-52 1.50494e-51 2.90618e-51 5.54047e-51 1.04266e-50 1.93671e-50 3.55028e-50 6.42236e-50 1.14633e-49 2.01868e-49 3.50684e-49 6.00915e-49 1.01558e-48 1.69268e-48 2.78198e-48 4.50828e-48 7.20283e-48 1.13447e-47 1.76136e-47 2.69546e-47 4.06549e-47 6.04313e-47 8.85227e-47 1.27782e-46 1.81756e-46 2.54741e-46 3.51798e-46 4.78705e-46 6.41844e-46 8.47986e-46 1.10399e-45 1.4164e-45 1.79098e-45 2.23217e-45 2.74258e-45 3.32244e-45 3.9693e-45 4.67768e-45 5.43916e-45 6.24249e-45 7.07406e-45 7.91856e-45 8.7598e-45 9.5816e-45 1.03687e-44 1.11077e-44 1.17874e-44 1.23999e-44 1.29398e-44 1.34052e-44 1.37965e-44 1.41165e-44 1.43692e-44 1.456e-44 1.46943e-44 1.47777e-44 1.48153e-44 1.48115e-44 1.47706e-44 1.46963e-44 1.45925e-44 1.44633e-44 1.43132e-44 1.41474e-44 1.39722e-44 1.37942e-44 1.36206e-44 1.34588e-44 1.33157e-44 1.31974e-44 1.31091e-44 1.3054e-44 1.30337e-44 1.30477e-44 1.30937e-44 1.31678e-44 1.32648e-44 1.33784e-44 1.35021e-44 1.36294e-44 1.37543e-44 1.38716e-44 1.39772e-44 1.40681e-44 1.41427e-44 1.42005e-44 1.42422e-44 1.42691e-44 1.42836e-44 1.42882e-44 1.4286e-44 1.42801e-44 1.42734e-44 1.42689e-44 1.4269e-44 1.42761e-44 1.4292e-44 1.4318e-44 1.43552e-44 1.44042e-44 1.44649e-44 1.45373e-44 1.46206e-44 1.4714e-44 1.48162e-44 1.49257e-44 1.50407e-44 1.51593e-44 1.52792e-44 1.53979e-44 1.5513e-44 1.56215e-44 1.57206e-44 1.58075e-44 1.58794e-44 1.59339e-44 1.59689e-44 1.59829e-44 1.59748e-44 1.59446e-44 1.58925e-44 1.58195e-44 1.57267e-44 1.56156e-44 1.54874e-44 1.53432e-44 1.51833e-44 1.50075e-44 1.4815e-44 1.46041e-44 1.43724e-44 1.41173e-44 1.38356e-44 1.3524e-44 1.31795e-44 1.27991e-44 1.23807e-44 1.19225e-44 1.1424e-44 1.08856e-44 1.0309e-44 9.69717e-45 9.0548e-45 8.38783e-45 7.70357e-45 7.01044e-45 6.31767e-45 5.63489e-45 4.97165e-45 4.337e-45 3.73897e-45 3.18426e-45 2.6779e-45 2.22313e-45 1.82132e-45 1.47214e-45 1.17369e-45 9.22813e-46 7.15424e-46 5.46819e-46 4.1201e-46 3.06e-46 2.24004e-46 1.61621e-46 1.1493e-46 8.05492e-47 5.56397e-47 3.78804e-47 2.54192e-47 1.68131e-47 1.09621e-47 7.04569e-48 4.46447e-48 2.78909e-48 1.71805e-48 1.04358e-48 6.2513e-49 3.69326e-49 2.15221e-49 1.23719e-49 7.0163e-50 3.92595e-50 2.16765e-50 1.1811e-50 6.35157e-51 3.37148e-51 1.76665e-51 9.13931e-52 4.6683e-52 2.35467e-52 1.17294e-52 5.77079e-53 2.80451e-53 1.34638e-53 6.38484e-54 2.98882e-54 1.37568e-54 6.09788e-55 2.30339e-55 0 
0 1.04964e-74 3.89819e-74 1.33425e-73 4.50277e-73 1.50619e-72 4.99582e-72 1.64304e-71 5.35773e-71 1.73212e-70 5.55156e-70 1.76386e-69 5.55515e-69 1.73415e-68 5.36544e-68 1.64523e-67 4.9994e-67 1.50541e-66 4.49164e-66 1.32782e-65 3.88892e-65 1.12834e-64 3.24299e-64 9.23236e-64 2.6032e-63 7.26944e-63 2.01029e-62 5.50486e-62 1.49256e-61 4.00665e-61 1.06478e-60 2.80112e-60 7.29395e-60 1.87982e-59 4.79463e-59 1.21016e-58 3.02234e-58 7.46822e-58 1.82568e-57 4.415e-57 1.05607e-56 2.49845e-56 5.84554e-56 1.35243e-55 3.09384e-55 6.99735e-55 1.56451e-54 3.45771e-54 7.55305e-54 1.63055e-53 3.47842e-53 7.33193e-53 1.52686e-52 3.14108e-52 6.38281e-52 1.281e-51 2.53892e-51 4.9689e-51 9.60147e-51 1.83161e-50 3.44906e-50 6.41048e-50 1.17586e-49 2.1284e-49 3.80129e-49 6.69797e-49 1.16425e-48 1.99614e-48 3.37546e-48 5.62898e-48 9.25629e-48 1.50077e-47 2.39893e-47 3.78017e-47 5.87161e-47 8.98919e-47 1.35634e-46 2.01685e-46 2.95535e-46 4.26727e-46 6.07128e-46 8.5111e-46 1.17559e-45 1.59989e-45 2.14532e-45 2.83446e-45 3.69015e-45 4.73414e-45 5.98549e-45 7.45878e-45 9.16231e-45 1.10965e-44 1.32526e-44 1.56117e-44 1.81451e-44 2.08147e-44 2.35744e-44 2.63728e-44 2.91554e-44 3.18684e-44 3.44609e-44 3.68884e-44 3.91148e-44 4.11137e-44 4.28691e-44 4.4375e-44 4.56343e-44 4.6657e-44 4.74584e-44 4.80564e-44 4.84705e-44 4.87192e-44 4.88199e-44 4.87879e-44 4.86369e-44 4.83794e-44 4.80276e-44 4.75947e-44 4.70954e-44 4.65466e-44 4.5968e-44 4.53813e-44 4.481e-44 4.42777e-44 4.38073e-44 4.34188e-44 4.31286e-44 4.29475e-44 4.28805e-44 4.29261e-44 4.30768e-44 4.33195e-44 4.36369e-44 4.40089e-44 4.44138e-44 4.48304e-44 4.52389e-44 4.56224e-44 4.59672e-44 4.62638e-44 4.6507e-44 4.66951e-44 4.68301e-44 4.69171e-44 4.69632e-44 4.69772e-44 4.6969e-44 4.69486e-44 4.69259e-44 4.69102e-44 4.69101e-44 4.69328e-44 4.69842e-44 4.70691e-44 4.71906e-44 4.73505e-44 4.75492e-44 4.7786e-44 4.80587e-44 4.83644e-44 4.8699e-44 4.90575e-44 4.94342e-44 4.98225e-44 5.02153e-44 5.06045e-44 5.09815e-44 5.13372e-44 5.16624e-44 5.19475e-44 5.21837e-44 5.23628e-44 5.2478e-44 5.25245e-44 5.24991e-44 5.2401e-44 5.22317e-44 5.1994e-44 5.16921e-44 5.13307e-44 5.09143e-44 5.04461e-44 4.99278e-44 4.93589e-44 4.87364e-44 4.80551e-44 4.73075e-44 4.64845e-44 4.55757e-44 4.45704e-44 4.34578e-44 4.22283e-44 4.08738e-44 3.93883e-44 3.77689e-44 3.60162e-44 3.41352e-44 3.21354e-44 3.0031e-44 2.78414e-44 2.55905e-44 2.3306e-44 2.10184e-44 1.87601e-44 1.65629e-44 1.44574e-44 1.24709e-44 1.06261e-44 8.94032e-45 7.42493e-45 6.085e-45 4.91975e-45 3.92323e-45 3.08516e-45 2.39209e-45 1.82846e-45 1.3777e-45 1.02319e-45 7.48957e-46 5.40312e-46 3.84159e-46 2.69186e-46 1.85898e-46 1.26528e-46 8.48794e-47 5.61233e-47 3.6579e-47 2.35015e-47 1.48855e-47 9.29542e-48 5.72329e-48 3.47481e-48 2.08049e-48 1.22853e-48 7.15544e-49 4.11111e-49 2.33022e-49 1.30315e-49 7.19112e-50 3.91606e-50 2.10473e-50 1.11657e-50 5.84743e-51 3.02327e-51 1.54337e-51 7.78015e-52 3.87328e-52 1.90453e-52 9.25032e-53 4.43831e-53 2.10353e-53 9.84131e-54 4.52723e-54 2.00575e-54 7.57358e-55 0 