# vtk DataFile Version 3.0
Gray-Scott Simulation Output
ASCII
DATASET STRUCTURED_POINTS
DIMENSIONS 256 256 1
SPACING 1.0 1.0 1.0
ORIGIN 0 0 0
POINT_DATA 65536
SCALARS u double
LOOKUP_TABLE default
0 0 0 0 0 0 0 0 0 0 0 0 0 0 0 0 0 0 0 0 0 0 0 0 0 0 0 0 0 0 0 0 0 0 0 0 0 0 0 0 0 0 0 0 0 0 0 0 0 0 0 0 0 0 0 0 0 0 0 0 0 0 0 0 0 0 0 0 0 0 0 0 0 0 0 0 0 0 0 0 0 0 0 0 0 0 0 0 0 0 0 0 0 0 0 0 0 0 0 0 0 0 0 0 0 0 0 0 0 0 0 0 0 0 0 0 0 0 0 0 0 0 0 0 0 0 0 0 0 0 0 0 0 0 0 0 0 0 0 0 0 0 0 0 0 0 0 0 0 0 0 0 0 0 0 0 0 0 0 0 0 0 0 0 0 0 0 0 0 0 0 0 0 0 0 0 0 0 0 0 0 0 0 0 0 0 0 0 0 0 0 0 0 0 0 0 0 0 0 0 0 0 0 0 0 0 0 0 0 0 0 0 0 0 0 0 0 0 0 0 0 0 0 0 0 0 0 0 0 0 0 0 0 0 0 0 0 0 0 0 0 0 0 0 0 0 0 0 0 0 0 0 0 0 0 0 
0 8.35715e-106 5.26153e-105 3.20012e-104 1.92614e-103 1.14791e-102 6.77321e-102 3.95647e-101 2.28775e-100 1.30935e-99 7.4167e-99 4.15747e-98 2.30606e-97 1.26558e-96 6.87141e-96 3.69055e-95 1.96056e-94 1.03007e-93 5.35186e-93 2.74944e-92 1.39649e-91 7.01184e-91 3.48e-90 1.70697e-89 8.27403e-89 3.96279e-88 1.87509e-87 8.76444e-87 4.04621e-86 1.84475e-85 8.30482e-85 3.69119e-84 1.61951e-83 7.01325e-83 2.99714e-82 1.2638e-81 5.25741e-81 2.15731e-80 8.73039e-80 3.48386e-79 1.37063e-78 5.31544e-78 2.03161e-77 7.65142e-77 2.83901e-76 1.03761e-75 3.73472e-75 1.32359e-74 4.61781e-74 1.58567e-73 5.35791e-73 1.78111e-72 5.82373e-72 1.87255e-71 5.91952e-71 1.83933e-70 5.61632e-70 1.68483e-69 4.9644e-69 1.43639e-68 4.08005e-68 1.13744e-67 3.11136e-67 8.34857e-67 2.19682e-66 5.66729e-66 1.43296e-65 3.55014e-65 8.6156e-65 2.04751e-64 4.76362e-64 1.08466e-63 2.41637e-63 5.26523e-63 1.12183e-62 2.33648e-62 4.75549e-62 9.45587e-62 1.83636e-61 3.48209e-61 6.44519e-61 1.16421e-60 2.05176e-60 3.52712e-60 5.91324e-60 9.66645e-60 1.54057e-59 2.39343e-59 3.62456e-59 5.35031e-59 7.69851e-59 1.07991e-58 1.47705e-58 1.97037e-58 2.56454e-58 3.25825e-58 4.0433e-58 4.9044e-58 5.81995e-58 6.76378e-58 7.70756e-58 8.62358e-58 9.48748e-58 1.02803e-57 1.09896e-57 1.16101e-57 1.21424e-57 1.25917e-57 1.29664e-57 1.32753e-57 1.35265e-57 1.37256e-57 1.38749e-57 1.39731e-57 1.4016e-57 1.39969e-57 1.39088e-57 1.37464e-57 1.35077e-57 1.31967e-57 1.28242e-57 1.24082e-57 1.19734e-57 1.15487e-57 1.11649e-57 1.08503e-57 1.06283e-57 1.05138e-57 1.05116e-57 1.06166e-57 1.08145e-57 1.10841e-57 1.14006e-57 1.17381e-57 1.20731e-57 1.23858e-57 1.26615e-57 1.28908e-57 1.30694e-57 1.31969e-57 1.3276e-57 1.33118e-57 1.33108e-57 1.32803e-57 1.32282e-57 1.31622e-57 1.30896e-57 1.30173e-57 1.29509e-57 1.28953e-57 1.28541e-57 1.28304e-57 1.28265e-57 1.28444e-57 1.28856e-57 1.29511e-57 1.30412e-57 1.31551e-57 1.32907e-57 1.34446e-57 1.36124e-57 1.37896e-57 1.39719e-57 1.41559e-57 1.43399e-57 1.45236e-57 1.47069e-57 1.48898e-57 1.50703e-57 1.52438e-57 1.54026e-57 1.55363e-57 1.56334e-57 1.5683e-57 1.56771e-57 1.56125e-57 1.5492e-57 1.53241e-57 1.51216e-57 1.48996e-57 1.46722e-57 1.44504e-57 1.42391e-57 1.40371e-57 1.38363e-57 1.36239e-57 1.3384e-57 1.31008e-57 1.27607e-57 1.23545e-57 1.18783e-57 1.13337e-57 1.07269e-57 1.00673e-57 9.36586e-58 8.63414e-58 7.88304e-58 7.12276e-58 6.36298e-58 5.61323e-58 4.88337e-58 4.18362e-58 3.52431e-58 2.91517e-58 2.36455e-58 1.87849e-58 1.46014e-58 1.10949e-58 8.23528e-59 5.96779e-59 4.22021e-59 2.9114e-59 1.95894e-59 1.28539e-59 8.22467e-60 5.13191e-60 3.12279e-60 1.85336e-60 1.07299e-60 6.06072e-61 3.34072e-61 1.79737e-61 9.44122e-62 4.84307e-62 2.42679e-62 1.18819e-62 5.68596e-63 2.66018e-63 1.21712e-63 5.44757e-64 2.38585e-64 1.02278e-64 4.29289e-65 1.7647e-65 7.10672e-66 2.8046e-66 1.08492e-66 4.115e-67 1.53076e-67 5.58636e-68 2.00055e-68 7.03205e-69 2.42683e-69 8.2249e-70 2.73819e-70 8.95663e-71 2.87923e-71 9.09833e-72 2.82683e-72 8.63749e-73 2.5961e-73 7.67682e-74 2.23311e-74 6.36232e-75 1.6675e-75 0 
0 5.25448e-105 3.30774e-104 2.01155e-103 1.2106e-102 7.21386e-102 4.256e-101 2.48579e-100 1.43719e-99 8.2246e-99 4.65824e-98 2.61092e-97 1.44807e-96 7.94632e-96 4.31398e-95 2.31676e-94 1.23064e-93 6.46513e-93 3.35874e-92 1.72536e-91 8.76267e-91 4.39944e-90 2.18329e-89 1.07084e-88 5.19024e-88 2.48567e-87 1.17608e-86 5.49683e-86 2.53754e-85 1.15685e-84 5.20776e-84 2.31456e-83 1.01547e-82 4.3973e-82 1.87914e-81 7.92355e-81 3.29611e-80 1.35249e-79 5.47327e-79 2.18408e-78 8.59261e-78 3.33228e-77 1.27363e-76 4.79675e-76 1.77982e-75 6.50503e-75 2.34143e-74 8.29829e-74 2.89522e-73 9.94199e-73 3.35948e-72 1.11682e-71 3.65188e-71 1.17428e-70 3.71235e-70 1.15358e-69 3.52265e-69 1.05683e-68 3.11421e-68 9.01132e-68 2.55986e-67 7.13706e-67 1.95245e-66 5.23941e-66 1.37882e-65 3.55741e-65 8.99578e-65 2.22894e-64 5.40986e-64 1.28581e-63 2.99184e-63 6.8131e-63 1.51798e-62 3.30806e-62 7.04912e-62 1.46833e-61 2.98888e-61 5.94383e-61 1.15444e-60 2.1893e-60 4.05276e-60 7.32142e-60 1.29043e-59 2.21856e-59 3.71979e-59 6.08134e-59 9.6928e-59 1.50599e-58 2.28079e-58 3.36694e-58 4.8449e-58 6.79644e-58 9.29615e-58 1.24013e-57 1.61411e-57 2.05072e-57 2.5448e-57 3.0867e-57 3.66281e-57 4.25664e-57 4.85034e-57 5.42647e-57 5.9697e-57 6.46808e-57 6.91388e-57 7.30368e-57 7.63793e-57 7.92002e-57 8.15511e-57 8.34887e-57 8.50637e-57 8.63114e-57 8.72466e-57 8.78619e-57 8.81297e-57 8.80092e-57 8.74564e-57 8.6437e-57 8.49397e-57 8.29886e-57 8.06515e-57 7.80417e-57 7.53137e-57 7.26496e-57 7.02416e-57 6.82689e-57 6.68769e-57 6.61592e-57 6.61469e-57 6.6807e-57 6.80498e-57 6.97426e-57 7.1729e-57 7.38477e-57 7.59499e-57 7.79118e-57 7.96414e-57 8.10802e-57 8.22002e-57 8.29995e-57 8.34955e-57 8.37198e-57 8.37132e-57 8.35221e-57 8.31952e-57 8.27812e-57 8.23265e-57 8.18731e-57 8.14571e-57 8.11083e-57 8.08504e-57 8.07019e-57 8.06776e-57 8.07895e-57 8.10474e-57 8.14577e-57 8.20221e-57 8.27354e-57 8.35846e-57 8.45486e-57 8.56004e-57 8.67106e-57 8.78524e-57 8.90055e-57 9.01589e-57 9.13097e-57 9.2459e-57 9.36055e-57 9.47371e-57 9.58249e-57 9.68207e-57 9.76597e-57 9.8269e-57 9.85803e-57 9.85435e-57 9.81389e-57 9.73835e-57 9.63305e-57 9.50608e-57 9.36685e-57 9.2243e-57 9.08518e-57 8.95274e-57 8.82605e-57 8.70017e-57 8.56697e-57 8.41655e-57 8.23894e-57 8.02563e-57 7.77083e-57 7.47211e-57 7.13043e-57 6.74964e-57 6.3356e-57 5.89523e-57 5.43567e-57 4.96377e-57 4.4859e-57 4.00813e-57 3.53648e-57 3.07715e-57 2.63659e-57 2.22136e-57 1.83762e-57 1.49065e-57 1.18431e-57 9.20598e-58 6.99536e-58 5.19244e-58 3.76274e-58 2.66083e-58 1.83558e-58 1.23502e-58 8.10331e-59 5.18465e-59 3.23481e-59 1.96824e-59 1.16804e-59 6.76163e-60 3.8189e-60 2.10479e-60 1.1323e-60 5.94704e-61 3.05031e-61 1.52829e-61 7.4818e-62 3.57991e-62 1.67466e-62 7.66122e-63 3.42857e-63 1.50142e-63 6.43561e-64 2.70088e-64 1.11013e-64 4.47018e-65 1.76392e-65 6.82272e-66 2.58753e-66 9.62452e-67 3.51203e-67 1.25758e-67 4.42008e-68 1.52528e-68 5.16899e-69 1.7207e-69 5.62799e-70 1.80907e-70 5.71626e-71 1.77592e-71 5.42609e-72 1.63079e-72 4.82212e-73 1.40265e-73 3.99611e-74 1.04731e-74 0 
0 3.19125e-104 2.00867e-103 1.22139e-102 7.34965e-102 4.37905e-101 2.58321e-100 1.50859e-99 8.72109e-99 4.99023e-98 2.82604e-97 1.58381e-96 8.7832e-96 4.81929e-95 2.61608e-94 1.40479e-93 7.46137e-93 3.91946e-92 2.03604e-91 1.04581e-90 5.31095e-90 2.66623e-89 1.32306e-88 6.48875e-88 3.1448e-87 1.50598e-86 7.12503e-86 3.32995e-85 1.53714e-84 7.00741e-84 3.15434e-83 1.40187e-82 6.15021e-82 2.66314e-81 1.13803e-80 4.79847e-80 1.99606e-79 8.19029e-79 3.31442e-78 1.32259e-77 5.20332e-77 2.01789e-76 7.71259e-76 2.90476e-75 1.07782e-74 3.93939e-74 1.41799e-73 5.02565e-73 1.75348e-72 6.02158e-72 2.03483e-71 6.76493e-71 2.21218e-70 7.11378e-70 2.24909e-69 6.98938e-69 2.13448e-68 6.40417e-68 1.88731e-67 5.46164e-67 1.55165e-66 4.32652e-66 1.18371e-65 3.17684e-65 8.3612e-65 2.15747e-64 5.45635e-64 1.35212e-63 3.28214e-63 7.80194e-63 1.81561e-62 4.1351e-62 9.21438e-62 2.00831e-61 4.28008e-61 8.91658e-61 1.81528e-60 3.61043e-60 7.01329e-60 1.33018e-59 2.46269e-59 4.44947e-59 7.84329e-59 1.3486e-58 2.2614e-58 3.69744e-58 5.89374e-58 9.15799e-58 1.38707e-57 2.04774e-57 2.94679e-57 4.13396e-57 5.65462e-57 7.54357e-57 9.81855e-57 1.24745e-56 1.54798e-56 1.87756e-56 2.22792e-56 2.589e-56 2.94993e-56 3.30012e-56 3.63022e-56 3.93298e-56 4.20371e-56 4.44034e-56 4.64317e-56 4.81426e-56 4.95679e-56 5.0742e-56 5.1696e-56 5.24515e-56 5.30176e-56 5.33899e-56 5.35516e-56 5.34782e-56 5.31428e-56 5.25247e-56 5.16169e-56 5.04342e-56 4.90174e-56 4.74354e-56 4.57817e-56 4.41668e-56 4.27073e-56 4.15118e-56 4.06685e-56 4.0234e-56 4.02274e-56 4.06284e-56 4.13827e-56 4.24097e-56 4.36146e-56 4.48995e-56 4.61742e-56 4.73637e-56 4.84121e-56 4.92842e-56 4.99629e-56 5.04472e-56 5.07476e-56 5.08834e-56 5.08792e-56 5.07633e-56 5.05652e-56 5.03144e-56 5.0039e-56 4.97644e-56 4.95125e-56 4.93014e-56 4.91452e-56 4.90553e-56 4.90405e-56 4.91082e-56 4.92642e-56 4.95124e-56 4.98539e-56 5.02856e-56 5.07996e-56 5.1383e-56 5.20197e-56 5.26917e-56 5.33829e-56 5.40811e-56 5.47794e-56 5.54762e-56 5.61722e-56 5.68666e-56 5.75521e-56 5.82112e-56 5.88147e-56 5.93232e-56 5.96926e-56 5.98814e-56 5.98594e-56 5.96144e-56 5.91568e-56 5.85189e-56 5.77497e-56 5.69061e-56 5.60424e-56 5.51995e-56 5.43971e-56 5.36297e-56 5.28671e-56 5.20601e-56 5.11488e-56 5.00726e-56 4.87801e-56 4.72359e-56 4.54254e-56 4.3354e-56 4.10452e-56 3.85341e-56 3.58625e-56 3.30735e-56 3.02084e-56 2.73058e-56 2.44026e-56 2.15351e-56 1.87413e-56 1.60606e-56 1.35331e-56 1.11965e-56 9.08327e-57 7.21708e-57 5.61032e-57 4.26324e-57 3.16451e-57 2.29318e-57 1.62159e-57 1.11862e-57 7.52594e-58 4.9377e-58 3.15901e-58 1.97081e-58 1.19905e-58 7.11497e-59 4.11833e-59 2.32573e-59 1.28168e-59 6.89412e-60 3.62047e-60 1.85674e-60 9.30158e-61 4.55303e-61 2.17825e-61 1.01883e-61 4.66032e-62 2.08532e-62 9.13067e-63 3.91321e-63 1.64207e-63 6.74848e-64 2.71707e-64 1.07201e-64 4.14597e-65 1.57218e-65 5.84718e-66 2.13342e-66 7.63853e-67 2.68447e-67 9.26266e-68 3.1387e-68 1.04475e-68 3.41682e-69 1.09822e-69 3.46987e-70 1.07794e-70 3.29329e-71 9.89724e-72 2.92638e-72 8.51176e-73 2.42487e-73 6.35494e-74 0 
0 1.91799e-103 1.20709e-102 7.33887e-102 4.41559e-101 2.63056e-100 1.55159e-99 9.06016e-99 5.23704e-98 2.99631e-97 1.69667e-96 9.50769e-96 5.27204e-95 2.89245e-94 1.56997e-93 8.42963e-93 4.47688e-92 2.35149e-91 1.22142e-90 6.27329e-90 3.18553e-89 1.59909e-88 7.93456e-88 3.89113e-87 1.88573e-86 9.0298e-86 4.27189e-85 1.99639e-84 9.21511e-84 4.20072e-83 1.89085e-82 8.40308e-82 3.68643e-81 1.59623e-80 6.82096e-80 2.87598e-79 1.19633e-78 4.90873e-78 1.98643e-77 7.92666e-77 3.11851e-76 1.20939e-75 4.62248e-75 1.74097e-74 6.46008e-74 2.36119e-73 8.49942e-73 3.01249e-72 1.05112e-71 3.6098e-71 1.2199e-70 4.05587e-70 1.32638e-69 4.26559e-69 1.34871e-68 4.19164e-68 1.28019e-67 3.84135e-67 1.13215e-66 3.27664e-66 9.30987e-66 2.59619e-65 7.10383e-65 1.90675e-64 5.01903e-64 1.29524e-63 3.27615e-63 8.11959e-63 1.97122e-62 4.68642e-62 1.09074e-61 2.48455e-61 5.53719e-61 1.20703e-60 2.57277e-60 5.36056e-60 1.09148e-59 2.17118e-59 4.21812e-59 8.00145e-59 1.48159e-58 2.6772e-58 4.71982e-58 8.11641e-58 1.36115e-57 2.22575e-57 3.54821e-57 5.51388e-57 8.35198e-57 1.2331e-56 1.77459e-56 2.48964e-56 3.40557e-56 4.54333e-56 5.91357e-56 7.5132e-56 9.32312e-56 1.13079e-55 1.34174e-55 1.55912e-55 1.77638e-55 1.98712e-55 2.18571e-55 2.36781e-55 2.53058e-55 2.67279e-55 2.79463e-55 2.89737e-55 2.9829e-55 3.05334e-55 3.11054e-55 3.15583e-55 3.18975e-55 3.21204e-55 3.22171e-55 3.21728e-55 3.19713e-55 3.16003e-55 3.10555e-55 3.03456e-55 2.94953e-55 2.85459e-55 2.75534e-55 2.65844e-55 2.57085e-55 2.49913e-55 2.44855e-55 2.42251e-55 2.42216e-55 2.44628e-55 2.4916e-55 2.55329e-55 2.62565e-55 2.70279e-55 2.77932e-55 2.85071e-55 2.91363e-55 2.96596e-55 3.00668e-55 3.03572e-55 3.05374e-55 3.06187e-55 3.06162e-55 3.05466e-55 3.04277e-55 3.02773e-55 3.01121e-55 2.99475e-55 2.97965e-55 2.96699e-55 2.95763e-55 2.95224e-55 2.95135e-55 2.9554e-55 2.96474e-55 2.97961e-55 3.00007e-55 3.02593e-55 3.05673e-55 3.09169e-55 3.12984e-55 3.17012e-55 3.21154e-55 3.25338e-55 3.29524e-55 3.33701e-55 3.37874e-55 3.42038e-55 3.46149e-55 3.50103e-55 3.53723e-55 3.56775e-55 3.58992e-55 3.60126e-55 3.59995e-55 3.58527e-55 3.55783e-55 3.51957e-55 3.47343e-55 3.42283e-55 3.37102e-55 3.32047e-55 3.27234e-55 3.22631e-55 3.18057e-55 3.13218e-55 3.07752e-55 3.01297e-55 2.93544e-55 2.84279e-55 2.73415e-55 2.60984e-55 2.47125e-55 2.32048e-55 2.16002e-55 1.99245e-55 1.82023e-55 1.64569e-55 1.47102e-55 1.29842e-55 1.13017e-55 9.68674e-56 8.16342e-56 6.75473e-56 5.48037e-56 4.35471e-56 3.38538e-56 2.5726e-56 1.90961e-56 1.38379e-56 9.78512e-57 6.74977e-57 4.54094e-57 2.97908e-57 1.90579e-57 1.18886e-57 7.23238e-58 4.29114e-58 2.48355e-58 1.40236e-58 7.72725e-59 4.15593e-59 2.18221e-59 1.11899e-59 5.60491e-60 2.74316e-60 1.31218e-60 6.13661e-61 2.80659e-61 1.25566e-61 5.49718e-62 2.35564e-62 9.8834e-63 4.06125e-63 1.63491e-63 6.44965e-64 2.49406e-64 9.45642e-65 3.51656e-65 1.28291e-65 4.59282e-66 1.61391e-66 5.56814e-67 1.8866e-67 6.27911e-68 2.05338e-68 6.59931e-69 2.08491e-69 6.4764e-70 1.97851e-70 5.94555e-71 1.75785e-71 5.11264e-72 1.45644e-72 3.81677e-73 0 
0 1.14134e-102 7.18219e-102 4.36608e-101 2.62662e-100 1.56461e-99 9.22747e-99 5.38755e-98 3.11381e-97 1.78133e-96 1.00858e-95 5.65121e-95 3.13329e-94 1.71888e-93 9.32884e-93 5.00848e-92 2.65971e-91 1.3969e-90 7.25523e-90 3.72602e-89 1.8919e-88 9.4964e-88 4.7117e-87 2.31047e-86 1.11964e-85 5.36107e-85 2.53612e-84 1.18515e-83 5.47026e-83 2.49352e-82 1.12235e-81 4.98765e-81 2.18802e-80 9.47393e-80 4.04827e-79 1.70688e-78 7.10006e-78 2.91326e-77 1.17891e-76 4.70436e-76 1.8508e-75 7.17771e-75 2.74348e-74 1.0333e-73 3.83431e-73 1.40151e-72 5.0451e-72 1.78824e-71 6.23985e-71 2.14303e-70 7.24262e-70 2.40815e-69 7.87588e-69 2.53305e-68 8.00973e-68 2.48956e-67 7.60419e-67 2.28194e-66 6.72621e-66 1.94689e-65 5.5323e-65 1.54294e-64 4.2224e-64 1.13348e-63 2.984e-63 7.70174e-63 1.94833e-62 4.82941e-62 1.17262e-61 2.78823e-61 6.49043e-61 1.47865e-60 3.29591e-60 7.18571e-60 1.53187e-59 3.19225e-59 6.50086e-59 1.29335e-58 2.51307e-58 4.76779e-58 8.82953e-58 1.5957e-57 2.81355e-57 4.83892e-57 8.11603e-57 1.32728e-56 2.11612e-56 3.28875e-56 4.98196e-56 7.356e-56 1.05869e-55 1.48536e-55 2.03189e-55 2.7108e-55 3.52841e-55 4.48284e-55 5.56268e-55 6.74671e-55 8.00505e-55 9.30149e-55 1.05969e-54 1.18532e-54 1.30368e-54 1.41217e-54 1.50911e-54 1.59377e-54 1.66627e-54 1.72737e-54 1.77822e-54 1.82007e-54 1.85404e-54 1.88092e-54 1.90106e-54 1.91428e-54 1.92001e-54 1.91735e-54 1.90537e-54 1.88331e-54 1.85092e-54 1.80872e-54 1.75817e-54 1.70172e-54 1.64273e-54 1.58512e-54 1.53306e-54 1.49043e-54 1.46038e-54 1.44492e-54 1.44474e-54 1.45912e-54 1.48609e-54 1.5228e-54 1.56584e-54 1.61172e-54 1.65722e-54 1.69967e-54 1.73708e-54 1.76818e-54 1.79238e-54 1.80963e-54 1.82033e-54 1.82516e-54 1.825e-54 1.82086e-54 1.8138e-54 1.80486e-54 1.79505e-54 1.78527e-54 1.77631e-54 1.76879e-54 1.76323e-54 1.76003e-54 1.7595e-54 1.7619e-54 1.76744e-54 1.77626e-54 1.7884e-54 1.80375e-54 1.82203e-54 1.84278e-54 1.86542e-54 1.88933e-54 1.91392e-54 1.93877e-54 1.96362e-54 1.98842e-54 2.0132e-54 2.03794e-54 2.06236e-54 2.08585e-54 2.10737e-54 2.12551e-54 2.13869e-54 2.14544e-54 2.14467e-54 2.13595e-54 2.11965e-54 2.09692e-54 2.06951e-54 2.03944e-54 2.00866e-54 1.97862e-54 1.95003e-54 1.92269e-54 1.89552e-54 1.86677e-54 1.8343e-54 1.79595e-54 1.74988e-54 1.69482e-54 1.63025e-54 1.55635e-54 1.47395e-54 1.38428e-54 1.28881e-54 1.18908e-54 1.08654e-54 9.8257e-55 8.78469e-55 7.75552e-55 6.75184e-55 5.78798e-55 4.87847e-55 4.03712e-55 3.27578e-55 2.60314e-55 2.0238e-55 1.53796e-55 1.14162e-55 8.27264e-56 5.84962e-56 4.0349e-56 2.71434e-56 1.78062e-56 1.13901e-56 7.1047e-57 4.32166e-57 2.56386e-57 1.48369e-57 8.37673e-58 4.61511e-58 2.4818e-58 1.30297e-58 6.68031e-59 3.34562e-59 1.63717e-59 7.83016e-60 3.66132e-60 1.67425e-60 7.48942e-61 3.2783e-61 1.4046e-61 5.89229e-62 2.42088e-62 9.74417e-63 3.84347e-63 1.48605e-63 5.63372e-64 2.09473e-64 7.64102e-65 2.73514e-65 9.61011e-66 3.31519e-66 1.12313e-66 3.73768e-67 1.22217e-67 3.92751e-68 1.2407e-68 3.85368e-69 1.17719e-69 3.53726e-70 1.04574e-70 3.04132e-71 8.6633e-72 2.27022e-72 0 
0 6.72416e-102 4.23085e-101 2.57163e-100 1.5469e-99 9.21338e-99 5.43308e-98 3.1718e-97 1.83298e-96 1.04849e-95 5.93585e-95 3.32561e-94 1.84369e-93 1.01132e-92 5.48824e-92 2.94627e-91 1.56445e-90 8.21593e-90 4.26686e-89 2.19114e-88 1.11248e-87 5.58369e-87 2.7702e-86 1.35834e-85 6.58201e-85 3.15144e-84 1.49075e-83 6.9661e-83 3.21518e-82 1.46553e-81 6.59623e-81 2.93123e-80 1.28586e-79 5.56755e-79 2.37901e-78 1.00306e-77 4.17236e-77 1.71198e-76 6.92792e-76 2.76455e-75 1.08765e-74 4.21817e-74 1.61232e-73 6.07282e-73 2.25353e-72 8.23739e-72 2.9654e-71 1.05114e-70 3.66805e-70 1.25984e-69 4.25808e-69 1.41591e-68 4.6311e-68 1.48958e-67 4.71063e-67 1.46428e-66 4.473e-66 1.34245e-65 3.95742e-65 1.1456e-64 3.25575e-64 9.08137e-64 2.48552e-63 6.67318e-63 1.75703e-62 4.53556e-62 1.14754e-61 2.8449e-61 6.90875e-61 1.643e-60 3.82519e-60 8.71599e-60 1.94311e-59 4.23705e-59 9.03411e-59 1.88293e-58 3.83511e-58 7.63119e-58 1.48303e-57 2.81406e-57 5.21217e-57 9.42101e-57 1.66135e-56 2.85769e-56 4.79364e-56 7.84038e-56 1.25016e-55 1.94311e-55 2.94379e-55 4.34694e-55 6.25664e-55 8.77861e-55 1.20092e-54 1.60222e-54 2.0855e-54 2.64963e-54 3.28784e-54 3.98755e-54 4.73107e-54 5.49698e-54 6.26215e-54 7.004e-54 7.70272e-54 8.34295e-54 8.9148e-54 9.414e-54 9.84129e-54 1.02012e-53 1.05006e-53 1.07468e-53 1.09467e-53 1.11048e-53 1.12231e-53 1.13008e-53 1.13343e-53 1.13186e-53 1.1248e-53 1.11181e-53 1.09273e-53 1.06788e-53 1.03812e-53 1.00488e-53 9.70141e-54 9.36221e-54 9.05569e-54 8.80474e-54 8.62788e-54 8.53703e-54 8.53613e-54 8.62096e-54 8.78e-54 8.99632e-54 9.24991e-54 9.52021e-54 9.78823e-54 1.00382e-53 1.02585e-53 1.04416e-53 1.0584e-53 1.06855e-53 1.07485e-53 1.07768e-53 1.07759e-53 1.07515e-53 1.07099e-53 1.06573e-53 1.05996e-53 1.05421e-53 1.04893e-53 1.04451e-53 1.04125e-53 1.03936e-53 1.03905e-53 1.04046e-53 1.04371e-53 1.0489e-53 1.05603e-53 1.06505e-53 1.0758e-53 1.088e-53 1.10131e-53 1.11537e-53 1.12983e-53 1.14444e-53 1.15905e-53 1.17364e-53 1.18822e-53 1.20277e-53 1.21714e-53 1.23097e-53 1.24363e-53 1.25431e-53 1.26208e-53 1.26606e-53 1.26561e-53 1.26048e-53 1.25089e-53 1.23752e-53 1.22138e-53 1.20369e-53 1.18557e-53 1.16789e-53 1.15107e-53 1.13498e-53 1.11899e-53 1.10208e-53 1.08297e-53 1.06041e-53 1.03329e-53 1.00089e-53 9.62876e-54 9.19365e-54 8.70833e-54 8.18008e-54 7.61754e-54 7.02962e-54 6.42489e-54 5.81139e-54 5.19683e-54 4.58895e-54 3.99584e-54 3.426e-54 2.88807e-54 2.39028e-54 1.93971e-54 1.54152e-54 1.19851e-54 9.10823e-55 6.76103e-55 4.89928e-55 3.4642e-55 2.3894e-55 1.60729e-55 1.05431e-55 6.74356e-56 4.20594e-56 2.55812e-56 1.51744e-56 8.78023e-57 4.95656e-57 2.7304e-57 1.46807e-57 7.70634e-58 3.95043e-58 1.97813e-58 9.67837e-59 4.62818e-59 2.16374e-59 9.89276e-60 4.4246e-60 1.93644e-60 8.29538e-61 3.47936e-61 1.42929e-61 5.75206e-62 2.26849e-62 8.76963e-63 3.32414e-63 1.23581e-63 4.50728e-64 1.61319e-64 5.66732e-65 1.95481e-65 6.62177e-66 2.20342e-66 7.20405e-67 2.31483e-67 7.3118e-68 2.27088e-68 6.93624e-69 2.08406e-69 6.16078e-70 1.7916e-70 5.10309e-71 1.33719e-71 0 
0 3.92169e-101 2.46725e-100 1.49948e-99 9.0187e-99 5.37094e-98 3.16686e-97 1.84859e-96 1.06819e-95 6.10952e-95 3.45844e-94 1.93743e-93 1.07399e-92 5.89065e-92 3.19644e-91 1.71581e-90 9.11008e-90 4.7839e-89 2.48428e-88 1.27565e-87 6.47621e-87 3.2503e-86 1.61245e-85 7.90601e-85 3.83076e-84 1.83406e-83 8.6754e-83 4.05374e-82 1.87092e-81 8.52764e-81 3.83811e-80 1.70554e-79 7.48163e-79 3.23937e-78 1.38417e-77 5.83599e-77 2.42756e-76 9.96067e-76 4.03086e-75 1.60852e-74 6.32849e-74 2.4544e-73 9.38177e-73 3.53379e-72 1.31139e-71 4.79378e-71 1.72582e-70 6.11785e-70 2.13501e-69 7.33351e-69 2.4788e-68 8.24325e-68 2.69641e-67 8.67376e-67 2.74324e-66 8.52817e-66 2.60542e-65 7.82036e-65 2.30566e-64 6.67531e-64 1.89735e-63 5.29305e-63 1.44889e-62 3.89057e-62 1.02453e-61 2.64512e-61 6.69348e-61 1.65967e-60 4.03112e-60 9.5882e-60 2.23268e-59 5.08822e-59 1.13454e-58 2.47437e-58 5.27671e-58 1.09999e-57 2.24082e-57 4.45961e-57 8.6682e-57 1.64506e-56 3.04747e-56 5.50917e-56 9.71665e-56 1.6716e-55 2.80441e-55 4.58743e-55 7.31556e-55 1.13718e-54 1.72298e-54 2.54444e-54 3.66254e-54 5.13915e-54 7.03072e-54 9.3804e-54 1.221e-53 1.55128e-53 1.9249e-53 2.33449e-53 2.76966e-53 3.21785e-53 3.66551e-53 4.09942e-53 4.50797e-53 4.88219e-53 5.2163e-53 5.50783e-53 5.75723e-53 5.96721e-53 6.14176e-53 6.28528e-53 6.40168e-53 6.49372e-53 6.5626e-53 6.60779e-53 6.62729e-53 6.61807e-53 6.57685e-53 6.50105e-53 6.3898e-53 6.24488e-53 6.07129e-53 5.87745e-53 5.67484e-53 5.47702e-53 5.29828e-53 5.15195e-53 5.04887e-53 4.99596e-53 4.99554e-53 5.04513e-53 5.138e-53 5.26427e-53 5.41226e-53 5.56997e-53 5.72633e-53 5.87214e-53 6.00058e-53 6.10734e-53 6.19037e-53 6.24955e-53 6.28621e-53 6.30273e-53 6.30214e-53 6.28791e-53 6.26366e-53 6.233e-53 6.19937e-53 6.16586e-53 6.13514e-53 6.1094e-53 6.09036e-53 6.07938e-53 6.07754e-53 6.08574e-53 6.10467e-53 6.13484e-53 6.17636e-53 6.22888e-53 6.29144e-53 6.36248e-53 6.44001e-53 6.52188e-53 6.60609e-53 6.69116e-53 6.77629e-53 6.86126e-53 6.94619e-53 7.03098e-53 7.11475e-53 7.19535e-53 7.26921e-53 7.3315e-53 7.3768e-53 7.40002e-53 7.39745e-53 7.36759e-53 7.3117e-53 7.23373e-53 7.13968e-53 7.03653e-53 6.93093e-53 6.82789e-53 6.72983e-53 6.63607e-53 6.54292e-53 6.44436e-53 6.33304e-53 6.20153e-53 6.0435e-53 5.85461e-53 5.63298e-53 5.37925e-53 5.09617e-53 4.78796e-53 4.45964e-53 4.11638e-53 3.76314e-53 3.4046e-53 3.04525e-53 2.68962e-53 2.34246e-53 2.00876e-53 1.69361e-53 1.40188e-53 1.13774e-53 9.04254e-54 7.03081e-54 5.3433e-54 3.96636e-54 2.87413e-54 2.03219e-54 1.40161e-54 9.4277e-55 6.18365e-55 3.95481e-55 2.46634e-55 1.4999e-55 8.89608e-56 5.14675e-56 2.90499e-56 1.60003e-56 8.60161e-57 4.51452e-57 2.31386e-57 1.15844e-57 5.66692e-58 2.70944e-58 1.26648e-58 5.78943e-59 2.58891e-59 1.13285e-59 4.8521e-60 2.03478e-60 8.35729e-61 3.36278e-61 1.32599e-61 5.12526e-62 1.94244e-62 7.22025e-63 2.633e-63 9.42237e-64 3.30973e-64 1.14146e-64 3.86612e-65 1.28631e-65 4.20507e-66 1.35103e-66 4.26703e-67 1.32511e-67 4.04706e-68 1.21587e-68 3.59397e-69 1.04507e-69 2.9765e-70 7.79904e-71 0 
0 2.26403e-100 1.4242e-99 8.65466e-99 5.20478e-98 3.09927e-97 1.82721e-96 1.06648e-95 6.16191e-95 3.52397e-94 1.99463e-93 1.11729e-92 6.193e-92 3.39644e-91 1.84285e-90 9.89135e-90 5.25139e-89 2.75741e-88 1.43182e-87 7.35169e-87 3.73207e-86 1.87294e-85 9.291e-85 4.55523e-84 2.20707e-83 1.05664e-82 4.99784e-82 2.33524e-81 1.07775e-80 4.91223e-80 2.21084e-79 9.82408e-79 4.30944e-78 1.86587e-77 7.97272e-77 3.36149e-76 1.39827e-75 5.73738e-75 2.32182e-74 9.26545e-74 3.64546e-73 1.41387e-72 5.40464e-72 2.03583e-71 7.55533e-71 2.762e-70 9.94413e-70 3.52532e-69 1.23036e-68 4.22647e-68 1.42871e-67 4.7516e-67 1.55442e-66 5.00074e-66 1.58175e-65 4.91789e-65 1.50264e-64 4.51083e-64 1.33009e-63 3.85139e-63 1.09485e-62 3.05477e-62 8.3632e-62 2.24605e-61 5.91563e-61 1.52755e-60 3.86612e-60 9.58783e-60 2.32917e-59 5.54105e-59 1.29051e-58 2.94157e-58 6.56019e-58 1.431e-57 3.05225e-57 6.36393e-57 1.29666e-56 2.58104e-56 5.01771e-56 9.52436e-56 1.76469e-55 3.1907e-55 5.62842e-55 9.6843e-55 1.62496e-54 2.65844e-54 4.23995e-54 6.5916e-54 9.9882e-54 1.47516e-53 2.12355e-53 2.97988e-53 4.07687e-53 5.43954e-53 7.0805e-53 8.99578e-53 1.11622e-52 1.35369e-52 1.60595e-52 1.86572e-52 2.12512e-52 2.37647e-52 2.61307e-52 2.82969e-52 3.02302e-52 3.19163e-52 3.3358e-52 3.4571e-52 3.55789e-52 3.64071e-52 3.70785e-52 3.76092e-52 3.80062e-52 3.82665e-52 3.83787e-52 3.83251e-52 3.80868e-52 3.76489e-52 3.70063e-52 3.61693e-52 3.51666e-52 3.40471e-52 3.28768e-52 3.17343e-52 3.07019e-52 2.9857e-52 2.92619e-52 2.89568e-52 2.8955e-52 2.9242e-52 2.97791e-52 3.05091e-52 3.13644e-52 3.22757e-52 3.31791e-52 3.40214e-52 3.47632e-52 3.53797e-52 3.5859e-52 3.62006e-52 3.64121e-52 3.65073e-52 3.65038e-52 3.64215e-52 3.62815e-52 3.61045e-52 3.59104e-52 3.5717e-52 3.55398e-52 3.53913e-52 3.52815e-52 3.52181e-52 3.52075e-52 3.52546e-52 3.53637e-52 3.55376e-52 3.57769e-52 3.60797e-52 3.64404e-52 3.68501e-52 3.72972e-52 3.77693e-52 3.8255e-52 3.87457e-52 3.92368e-52 3.9727e-52 4.0217e-52 4.07063e-52 4.11898e-52 4.16552e-52 4.20817e-52 4.24414e-52 4.27032e-52 4.28375e-52 4.28228e-52 4.26506e-52 4.2328e-52 4.18779e-52 4.1335e-52 4.07395e-52 4.01299e-52 3.95351e-52 3.89691e-52 3.8428e-52 3.78905e-52 3.73218e-52 3.66794e-52 3.59205e-52 3.50083e-52 3.39178e-52 3.26382e-52 3.11729e-52 2.95377e-52 2.77569e-52 2.58592e-52 2.38743e-52 2.18308e-52 1.97556e-52 1.76746e-52 1.5614e-52 1.36014e-52 1.16659e-52 9.83723e-53 8.14381e-53 6.61004e-53 5.25395e-53 4.08531e-53 3.10485e-53 2.30476e-53 1.67007e-53 1.1808e-53 8.14363e-54 5.4773e-54 3.59227e-54 2.29724e-54 1.43247e-54 8.71044e-55 5.16559e-55 2.98808e-55 1.68631e-55 9.28649e-56 4.99152e-56 2.61933e-56 1.34227e-56 6.71893e-57 3.2862e-57 1.5709e-57 7.34155e-58 3.3554e-58 1.50018e-58 6.56325e-59 2.81059e-59 1.17844e-59 4.83924e-60 1.94685e-60 7.67539e-61 2.96621e-61 1.12399e-61 4.17731e-62 1.5231e-62 5.44967e-63 1.91398e-63 6.60001e-64 2.23511e-64 7.43551e-65 2.43044e-65 7.80773e-66 2.46566e-66 7.65616e-67 2.33805e-67 7.02358e-68 2.0759e-68 6.03585e-69 1.71896e-69 4.50372e-70 0 
0 1.29367e-99 8.13702e-99 4.94417e-98 2.97301e-97 1.77013e-96 1.04349e-95 6.08988e-95 3.51824e-94 2.01186e-93 1.13864e-92 6.37751e-92 3.53465e-91 1.93835e-90 1.05163e-89 5.64407e-89 2.99626e-88 1.57316e-87 8.16828e-87 4.19374e-86 2.12881e-85 1.06828e-84 5.29908e-84 2.59793e-83 1.25867e-82 6.02565e-82 2.85e-81 1.33162e-80 6.14544e-80 2.80094e-79 1.26059e-78 5.60148e-78 2.45713e-77 1.06386e-76 4.54581e-76 1.91664e-75 7.97266e-75 3.27139e-74 1.32391e-73 5.28332e-73 2.07877e-72 8.06273e-72 3.08217e-71 1.16106e-70 4.30914e-70 1.57539e-69 5.67231e-69 2.01105e-68 7.01927e-68 2.41143e-67 8.15233e-67 2.71156e-66 8.87145e-66 2.85436e-65 9.02949e-65 2.80775e-64 8.58002e-64 2.57603e-63 7.5969e-63 2.20007e-62 6.25518e-62 1.74555e-61 4.77966e-61 1.28386e-60 3.382e-60 8.73463e-60 2.21108e-59 5.48441e-59 1.33258e-58 3.17079e-58 7.3862e-58 1.68393e-57 3.75619e-57 8.19516e-57 1.74833e-56 3.64598e-56 7.4302e-56 1.47929e-55 2.87639e-55 5.46084e-55 1.01198e-54 1.83006e-54 3.22879e-54 5.55639e-54 9.32465e-54 1.52574e-53 2.43373e-53 3.78404e-53 5.73454e-53 8.47016e-53 1.21941e-52 1.71126e-52 2.34134e-52 3.12403e-52 4.06653e-52 5.16653e-52 6.41066e-52 7.77422e-52 9.22251e-52 1.07136e-51 1.22022e-51 1.36442e-51 1.5001e-51 1.62429e-51 1.73507e-51 1.83163e-51 1.91415e-51 1.98355e-51 2.04117e-51 2.08849e-51 2.12684e-51 2.15714e-51 2.1798e-51 2.19465e-51 2.20103e-51 2.19794e-51 2.1843e-51 2.15925e-51 2.1225e-51 2.07462e-51 2.01727e-51 1.95324e-51 1.8863e-51 1.82095e-51 1.76191e-51 1.71359e-51 1.67957e-51 1.66214e-51 1.66207e-51 1.67853e-51 1.70929e-51 1.75108e-51 1.80004e-51 1.85219e-51 1.90387e-51 1.95205e-51 1.99448e-51 2.02973e-51 2.05714e-51 2.07666e-51 2.08874e-51 2.09417e-51 2.09396e-51 2.08925e-51 2.08124e-51 2.07113e-51 2.06003e-51 2.04898e-51 2.03886e-51 2.03037e-51 2.0241e-51 2.02048e-51 2.01987e-51 2.02256e-51 2.02878e-51 2.0387e-51 2.05237e-51 2.06965e-51 2.09025e-51 2.11364e-51 2.13918e-51 2.16614e-51 2.19388e-51 2.22191e-51 2.24995e-51 2.27796e-51 2.30596e-51 2.33392e-51 2.36156e-51 2.38816e-51 2.41255e-51 2.43313e-51 2.44811e-51 2.45581e-51 2.45498e-51 2.44514e-51 2.4267e-51 2.40097e-51 2.36993e-51 2.33589e-51 2.30104e-51 2.26704e-51 2.23469e-51 2.20376e-51 2.17305e-51 2.14055e-51 2.10385e-51 2.06048e-51 2.00835e-51 1.94601e-51 1.87285e-51 1.78905e-51 1.69552e-51 1.59362e-51 1.485e-51 1.37135e-51 1.25428e-51 1.13533e-51 1.01598e-51 8.97736e-52 7.82185e-52 6.71005e-52 5.65917e-52 4.68561e-52 3.80355e-52 3.02348e-52 2.35109e-52 1.78689e-52 1.32644e-52 9.6114e-53 6.79537e-53 4.6863e-53 3.15171e-53 2.06685e-53 1.3216e-53 8.24005e-54 5.00987e-54 2.9706e-54 1.71811e-54 9.69456e-55 5.33787e-55 2.86862e-55 1.50506e-55 7.7112e-56 3.85922e-56 1.88717e-56 9.01945e-57 4.2144e-57 1.92578e-57 8.60839e-58 3.76541e-58 1.61215e-58 6.75823e-59 2.77473e-59 1.11608e-59 4.39929e-60 1.69983e-60 6.44003e-61 2.39303e-61 8.72382e-62 3.12089e-62 1.09592e-62 3.77849e-63 1.27941e-63 4.25558e-64 1.39083e-64 4.46742e-65 1.41063e-65 4.37963e-66 1.33731e-66 4.01688e-67 1.18711e-67 3.45131e-68 9.82817e-69 2.57482e-69 0 