# vtk DataFile Version 3.0
Gray-Scott Simulation Output
ASCII
DATASET STRUCTURED_POINTS
DIMENSIONS 256 256 1
SPACING 1.0 1.0 1.0
ORIGIN 0 0 0
POINT_DATA 65536
SCALARS u double
LOOKUP_TABLE default
0 0 0 0 0 0 0 0 0 0 0 0 0 0 0 0 0 0 0 0 0 0 0 0 0 0 0 0 0 0 0 0 0 0 0 0 0 0 0 0 0 0 0 0 0 0 0 0 0 0 0 0 0 0 0 0 0 0 0 0 0 0 0 0 0 0 0 0 0 0 0 0 0 0 0 0 0 0 0 0 0 0 0 0 0 0 0 0 0 0 0 0 0 0 0 0 0 0 0 0 0 0 0 0 0 0 0 0 0 0 0 0 0 0 0 0 0 0 0 0 0 0 0 0 0 0 0 0 0 0 0 0 0 0 0 0 0 0 0 0 0 0 0 0 0 0 0 0 0 0 0 0 0 0 0 0 0 0 0 0 0 0 0 0 0 0 0 0 0 0 0 0 0 0 0 0 0 0 0 0 0 0 0 0 0 0 0 0 0 0 0 0 0 0 0 0 0 0 0 0 0 0 0 0 0 0 0 0 0 0 0 0 0 0 0 0 0 0 0 0 0 0 0 0 0 0 0 0 0 0 0 0 0 0 0 0 0 0 0 0 0 0 0 0 0 0 0 0 0 0 0 0 0 0 0 0 
0 4.34428e-86 1.88733e-85 7.70741e-85 3.11025e-84 1.24363e-83 4.92761e-83 1.93465e-82 7.52595e-82 2.90054e-81 1.10745e-80 4.18855e-80 1.56915e-79 5.8223e-79 2.13953e-78 7.78578e-78 2.8055e-77 1.00094e-76 3.53557e-76 1.23631e-75 4.27931e-75 1.4661e-74 4.97112e-74 1.66806e-73 5.53852e-73 1.81954e-72 5.9139e-72 1.90147e-71 6.04738e-71 1.90224e-70 5.91749e-70 1.8203e-69 5.53651e-69 1.66484e-68 4.94888e-68 1.45409e-67 4.2226e-67 1.21178e-66 3.43619e-66 9.62694e-66 2.66445e-65 7.28427e-65 1.96685e-64 5.24459e-64 1.38087e-63 3.58959e-63 9.21153e-63 2.33324e-62 5.83272e-62 1.43884e-61 3.50208e-61 8.4092e-61 1.99178e-60 4.65292e-60 1.07189e-59 2.43475e-59 5.45231e-59 1.20355e-58 2.61849e-58 5.61401e-58 1.18597e-57 2.46825e-57 5.06008e-57 1.02169e-56 2.03148e-56 3.97719e-56 7.66564e-56 1.45435e-55 2.7157e-55 4.99027e-55 9.02277e-55 1.60499e-54 2.80846e-54 4.83364e-54 8.18161e-54 1.3618e-53 2.22871e-53 3.58606e-53 5.67238e-53 8.81991e-53 1.34798e-52 2.02488e-52 2.98947e-52 4.33766e-52 6.18559e-52 8.66912e-52 1.19413e-51 1.61673e-51 2.15163e-51 2.8151e-51 3.62144e-51 4.58152e-51 5.70135e-51 6.98079e-51 8.41258e-51 9.98193e-51 1.16667e-50 1.34381e-50 1.52625e-50 1.71033e-50 1.89229e-50 2.06857e-50 2.23596e-50 2.39183e-50 2.53416e-50 2.66165e-50 2.77364e-50 2.87001e-50 2.95108e-50 3.01742e-50 3.06975e-50 3.10877e-50 3.13511e-50 3.14931e-50 3.15187e-50 3.14325e-50 3.12407e-50 3.09515e-50 3.05764e-50 3.01309e-50 2.96349e-50 2.9112e-50 2.85885e-50 2.80922e-50 2.765e-50 2.72862e-50 2.70201e-50 2.6865e-50 2.68265e-50 2.69027e-50 2.70842e-50 2.73556e-50 2.76968e-50 2.80847e-50 2.84959e-50 2.89077e-50 2.93002e-50 2.9657e-50 2.99663e-50 3.02206e-50 3.04171e-50 3.05565e-50 3.06432e-50 3.06838e-50 3.06868e-50 3.06616e-50 3.0618e-50 3.05658e-50 3.05141e-50 3.04713e-50 3.04446e-50 3.04403e-50 3.04631e-50 3.05169e-50 3.06039e-50 3.07253e-50 3.0881e-50 3.10699e-50 3.12897e-50 3.15375e-50 3.18094e-50 3.21013e-50 3.24085e-50 3.2726e-50 3.30485e-50 3.33701e-50 3.36843e-50 3.39839e-50 3.42609e-50 3.45067e-50 3.47126e-50 3.487e-50 3.49717e-50 3.50117e-50 3.49866e-50 3.48957e-50 3.4741e-50 3.45267e-50 3.42586e-50 3.39433e-50 3.35865e-50 3.31922e-50 3.2762e-50 3.22942e-50 3.17841e-50 3.12241e-50 3.06051e-50 2.99166e-50 2.91489e-50 2.82934e-50 2.73439e-50 2.6297e-50 2.51528e-50 2.39147e-50 2.25893e-50 2.11866e-50 1.97192e-50 1.82024e-50 1.66537e-50 1.50924e-50 1.35389e-50 1.20143e-50 1.05394e-50 9.13383e-51 7.81518e-51 6.59804e-51 5.49339e-51 4.5081e-51 3.64481e-51 2.90205e-51 2.27472e-51 1.75471e-51 1.33175e-51 9.94217e-52 7.29969e-52 5.27021e-52 3.74115e-52 2.61096e-52 1.79139e-52 1.20827e-52 8.01164e-53 5.22236e-53 3.34669e-53 2.10858e-53 1.30621e-53 7.95652e-54 4.76599e-54 2.80765e-54 1.62682e-54 9.27233e-55 5.19925e-55 2.86845e-55 1.55727e-55 8.32036e-56 4.37565e-56 2.26528e-56 1.15462e-56 5.79497e-57 2.86432e-57 1.39447e-57 6.68765e-58 3.15993e-58 1.47122e-58 6.75057e-59 3.05296e-59 1.36107e-59 5.98249e-60 2.59287e-60 1.10825e-60 4.67202e-61 1.94278e-61 7.96741e-62 3.21622e-62 1.26034e-62 4.32295e-63 0 
0 1.88402e-85 8.18543e-85 3.343e-84 1.34914e-83 5.39499e-83 2.13783e-82 8.39421e-82 3.26573e-81 1.25875e-80 4.80652e-80 1.8181e-79 6.8119e-79 2.52784e-78 9.29021e-78 3.38115e-77 1.21851e-76 4.34797e-76 1.53603e-75 5.37192e-75 1.8597e-74 6.37233e-74 2.16103e-73 7.25252e-73 2.40849e-72 7.91388e-72 2.57265e-71 8.27328e-71 2.63171e-70 8.27982e-70 2.57622e-69 7.92644e-69 2.41137e-68 7.25264e-68 2.15639e-67 6.33742e-67 1.84079e-66 5.28388e-66 1.49869e-65 4.19985e-65 1.16269e-64 3.17949e-64 8.58734e-64 2.29043e-63 6.03227e-63 1.56854e-62 4.02631e-62 1.02015e-61 2.55096e-61 6.29471e-61 1.53258e-60 3.68117e-60 8.72185e-60 2.03813e-59 4.69672e-59 1.06719e-58 2.3906e-58 5.2788e-58 1.14885e-57 2.46394e-57 5.20684e-57 1.08401e-56 2.22304e-56 4.49007e-56 8.93079e-56 1.74902e-55 3.37217e-55 6.39987e-55 1.19542e-54 2.19735e-54 3.97418e-54 7.07149e-54 1.23775e-53 2.1309e-53 3.60783e-53 6.0067e-53 9.833e-53 1.58254e-52 2.5038e-52 3.89395e-52 5.95242e-52 8.94309e-52 1.32054e-51 1.91635e-51 2.73308e-51 3.83081e-51 5.27718e-51 7.14515e-51 9.50945e-51 1.24418e-50 1.60053e-50 2.02476e-50 2.51948e-50 3.08459e-50 3.71681e-50 4.40953e-50 5.15289e-50 5.93415e-50 6.73838e-50 7.54932e-50 8.35045e-50 9.12598e-50 9.86184e-50 1.05464e-49 1.1171e-49 1.17298e-49 1.22202e-49 1.26417e-49 1.29959e-49 1.32854e-49 1.35134e-49 1.36831e-49 1.37973e-49 1.38585e-49 1.38688e-49 1.38302e-49 1.37455e-49 1.36182e-49 1.34534e-49 1.32577e-49 1.304e-49 1.28105e-49 1.25807e-49 1.23629e-49 1.21689e-49 1.20092e-49 1.18925e-49 1.18245e-49 1.18076e-49 1.18411e-49 1.19208e-49 1.204e-49 1.21897e-49 1.23599e-49 1.25403e-49 1.27209e-49 1.2893e-49 1.30494e-49 1.31849e-49 1.32964e-49 1.33823e-49 1.34433e-49 1.34812e-49 1.34989e-49 1.35e-49 1.34888e-49 1.34696e-49 1.34466e-49 1.34239e-49 1.3405e-49 1.33932e-49 1.33913e-49 1.34012e-49 1.34247e-49 1.34628e-49 1.35159e-49 1.35841e-49 1.36669e-49 1.37632e-49 1.38717e-49 1.39909e-49 1.41188e-49 1.42534e-49 1.43926e-49 1.4534e-49 1.4675e-49 1.48128e-49 1.49442e-49 1.50657e-49 1.51736e-49 1.52639e-49 1.53331e-49 1.53778e-49 1.53954e-49 1.53845e-49 1.53447e-49 1.52769e-49 1.5183e-49 1.50656e-49 1.49275e-49 1.47712e-49 1.45986e-49 1.44103e-49 1.42056e-49 1.39824e-49 1.37376e-49 1.34668e-49 1.31658e-49 1.283e-49 1.24557e-49 1.20402e-49 1.15819e-49 1.10808e-49 1.05382e-49 9.9571e-50 9.34169e-50 8.69749e-50 8.03116e-50 7.35033e-50 6.66346e-50 5.97955e-50 5.30789e-50 4.6577e-50 4.03768e-50 3.45566e-50 2.91816e-50 2.43011e-50 1.99461e-50 1.61289e-50 1.28436e-50 1.00681e-50 7.76698e-51 5.895e-51 4.40095e-51 3.23117e-51 2.33273e-51 1.65581e-51 1.15549e-51 7.92694e-52 5.34591e-52 3.54414e-52 2.30984e-52 1.47996e-52 9.32255e-53 5.77384e-53 3.5162e-53 2.1057e-53 1.24016e-53 7.18389e-54 4.09346e-54 2.29468e-54 1.26562e-54 6.86896e-55 3.66894e-55 1.9289e-55 9.98288e-56 5.08672e-56 2.55221e-56 1.2611e-56 6.13764e-57 2.94259e-57 1.38994e-57 6.46937e-58 2.96747e-58 1.34163e-58 5.97941e-59 2.62739e-59 1.13839e-59 4.86424e-60 2.05e-60 8.52204e-61 3.4939e-61 1.40999e-61 5.52386e-62 1.89428e-62 0 
0 7.67874e-85 3.33641e-84 1.36274e-83 5.50014e-83 2.19962e-82 8.71716e-82 3.42317e-81 1.33191e-80 5.13436e-80 1.96078e-79 7.41771e-79 2.77956e-78 1.03161e-77 3.79187e-77 1.38024e-76 4.97492e-76 1.77546e-75 6.27325e-75 2.1943e-74 7.59772e-74 2.60385e-73 8.83199e-73 2.96463e-72 9.84716e-72 3.23626e-71 1.05226e-70 3.38465e-70 1.07689e-69 3.38883e-69 1.05466e-68 3.24572e-68 9.87652e-68 2.97129e-67 8.83664e-67 2.59768e-66 7.54735e-66 2.16702e-65 6.14817e-65 1.72342e-64 4.77255e-64 1.30549e-63 3.52702e-63 9.41028e-63 2.47916e-62 6.44851e-62 1.65582e-61 4.19676e-61 1.04979e-60 2.59135e-60 6.31137e-60 1.5165e-59 3.59434e-59 8.40233e-59 1.93697e-58 4.40279e-58 9.86636e-58 2.17945e-57 4.74504e-57 1.01805e-56 2.15218e-56 4.48233e-56 9.19566e-56 1.85803e-55 3.69703e-55 7.24306e-55 1.397e-54 2.65227e-54 4.95593e-54 9.11295e-54 1.64877e-53 2.93476e-53 5.13856e-53 8.84935e-53 1.49876e-52 2.49604e-52 4.08721e-52 6.57982e-52 1.04129e-51 1.61983e-51 2.47668e-51 3.72179e-51 5.49662e-51 7.97792e-51 1.13796e-50 1.5952e-50 2.19769e-50 2.97579e-50 3.96062e-50 5.18198e-50 6.666e-50 8.43244e-50 1.0492e-49 1.28439e-49 1.54742e-49 1.83552e-49 2.14453e-49 2.46914e-49 2.80308e-49 3.13959e-49 3.47178e-49 3.79308e-49 4.09767e-49 4.38074e-49 4.63872e-49 4.86928e-49 5.07134e-49 5.2448e-49 5.39034e-49 5.50913e-49 5.60253e-49 5.67189e-49 5.71843e-49 5.74317e-49 5.74696e-49 5.7307e-49 5.69545e-49 5.64268e-49 5.57445e-49 5.49355e-49 5.40354e-49 5.30869e-49 5.21376e-49 5.12377e-49 5.0436e-49 4.97765e-49 4.92944e-49 4.90135e-49 4.89442e-49 4.90828e-49 4.94124e-49 4.99048e-49 5.05234e-49 5.12266e-49 5.19716e-49 5.27173e-49 5.34276e-49 5.4073e-49 5.4632e-49 5.50912e-49 5.54455e-49 5.56965e-49 5.5852e-49 5.59241e-49 5.59282e-49 5.58814e-49 5.58015e-49 5.57061e-49 5.56118e-49 5.55336e-49 5.54847e-49 5.54762e-49 5.5517e-49 5.56136e-49 5.57704e-49 5.59895e-49 5.62707e-49 5.66118e-49 5.70089e-49 5.74565e-49 5.7948e-49 5.84756e-49 5.90311e-49 5.96053e-49 6.01888e-49 6.07707e-49 6.13395e-49 6.18821e-49 6.23839e-49 6.28296e-49 6.32031e-49 6.34891e-49 6.36739e-49 6.37472e-49 6.37026e-49 6.35387e-49 6.32593e-49 6.28721e-49 6.23878e-49 6.18182e-49 6.1174e-49 6.04627e-49 5.96871e-49 5.88444e-49 5.79259e-49 5.69183e-49 5.58044e-49 5.45656e-49 5.31837e-49 5.16431e-49 4.9932e-49 4.80439e-49 4.59783e-49 4.37407e-49 4.13425e-49 3.88011e-49 3.61387e-49 3.33827e-49 3.05645e-49 2.77189e-49 2.48833e-49 2.20963e-49 1.93963e-49 1.68198e-49 1.43996e-49 1.21631e-49 1.01312e-49 8.31732e-50 6.72673e-50 5.3573e-50 4.20003e-50 3.24031e-50 2.45943e-50 1.83611e-50 1.34804e-50 9.7316e-51 6.9071e-51 4.81951e-51 3.30588e-51 2.22913e-51 1.47757e-51 9.62795e-52 6.16747e-52 3.8841e-52 2.40499e-52 1.46422e-52 8.76617e-53 5.16136e-53 2.98893e-53 1.7026e-53 9.54119e-54 5.26068e-54 2.8542e-54 1.52401e-54 8.0095e-55 4.14381e-55 2.11071e-55 1.05865e-55 5.22915e-56 2.54405e-56 1.21927e-56 5.75717e-57 2.67867e-57 1.22825e-57 5.5511e-58 2.47316e-58 1.08634e-58 4.70522e-59 2.00981e-59 8.46728e-60 3.51874e-60 1.44215e-60 5.81799e-61 2.27861e-61 7.81207e-62 0 
0 3.09242e-84 1.34376e-83 5.48902e-83 2.21564e-82 8.86172e-82 3.5123e-81 1.37941e-80 5.36773e-80 2.06945e-79 7.90409e-79 2.99054e-78 1.12077e-77 4.16023e-77 1.52939e-76 5.56784e-76 2.00718e-75 7.16443e-75 2.53184e-74 8.8576e-74 3.06748e-73 1.05147e-72 3.56716e-72 1.19762e-71 3.97878e-71 1.3079e-70 4.25352e-70 1.36847e-69 4.35503e-69 1.3708e-68 4.26719e-68 1.31356e-67 3.99809e-67 1.20312e-66 3.57904e-66 1.05241e-65 3.05855e-65 8.78437e-65 2.49299e-64 6.99032e-64 1.93638e-63 5.29846e-63 1.43193e-62 3.82172e-62 1.00718e-61 2.62064e-61 6.73151e-61 1.70673e-60 4.27079e-60 1.0546e-59 2.56948e-59 6.17623e-59 1.46442e-58 3.4246e-58 7.89767e-58 1.79586e-57 4.02598e-57 8.89678e-57 1.93774e-56 4.1591e-56 8.79591e-56 1.83265e-55 3.76123e-55 7.60279e-55 1.51337e-54 2.96609e-54 5.72307e-54 1.08697e-53 2.03185e-53 3.73755e-53 6.7647e-53 1.20453e-52 2.10979e-52 3.6346e-52 6.15773e-52 1.02584e-51 1.6803e-51 2.70582e-51 4.28327e-51 6.66472e-51 1.01926e-50 1.53201e-50 2.26303e-50 3.28517e-50 4.68662e-50 6.57052e-50 9.05297e-50 1.22591e-49 1.63167e-49 2.13486e-49 2.74619e-49 3.47372e-49 4.32178e-49 5.28994e-49 6.37236e-49 7.55742e-49 8.82793e-49 1.01618e-48 1.15332e-48 1.29141e-48 1.42762e-48 1.55925e-48 1.68391e-48 1.79964e-48 1.90499e-48 1.99902e-48 2.08132e-48 2.15187e-48 2.21098e-48 2.25915e-48 2.29695e-48 2.32496e-48 2.34369e-48 2.35355e-48 2.35491e-48 2.34811e-48 2.3336e-48 2.31196e-48 2.28404e-48 2.25096e-48 2.21417e-48 2.17541e-48 2.13662e-48 2.09985e-48 2.06711e-48 2.04017e-48 2.02048e-48 2.00901e-48 2.00619e-48 2.01186e-48 2.02534e-48 2.04546e-48 2.07073e-48 2.09945e-48 2.12987e-48 2.16031e-48 2.1893e-48 2.21563e-48 2.23843e-48 2.25715e-48 2.27157e-48 2.28179e-48 2.2881e-48 2.29101e-48 2.29115e-48 2.28921e-48 2.28593e-48 2.28201e-48 2.27814e-48 2.27493e-48 2.27292e-48 2.27256e-48 2.27421e-48 2.27814e-48 2.28453e-48 2.29346e-48 2.30492e-48 2.31882e-48 2.33501e-48 2.35327e-48 2.37331e-48 2.39483e-48 2.41749e-48 2.44091e-48 2.46472e-48 2.48847e-48 2.51169e-48 2.53384e-48 2.55433e-48 2.57254e-48 2.5878e-48 2.5995e-48 2.60706e-48 2.61007e-48 2.60827e-48 2.6016e-48 2.59021e-48 2.57442e-48 2.55467e-48 2.53145e-48 2.5052e-48 2.47622e-48 2.44464e-48 2.41034e-48 2.37297e-48 2.33198e-48 2.28667e-48 2.23628e-48 2.18007e-48 2.11738e-48 2.04772e-48 1.97083e-48 1.88666e-48 1.79543e-48 1.69759e-48 1.59383e-48 1.48504e-48 1.37233e-48 1.25699e-48 1.14042e-48 1.02416e-48 9.09795e-49 7.98914e-49 6.93024e-49 5.93488e-49 5.01451e-49 4.17787e-49 3.43059e-49 2.77502e-49 2.2104e-49 1.7331e-49 1.33718e-49 1.01497e-49 7.57742e-50 5.56306e-50 4.01578e-50 2.84999e-50 1.98839e-50 1.36372e-50 9.19395e-51 6.09304e-51 3.96944e-51 2.54217e-51 1.60059e-51 9.90807e-52 6.03062e-52 3.60943e-52 2.12452e-52 1.22991e-52 7.0037e-53 3.92349e-53 2.16253e-53 1.17288e-53 6.26037e-54 3.28898e-54 1.70097e-54 8.66091e-55 4.34235e-55 2.14408e-55 1.04273e-55 4.99553e-56 2.35792e-56 1.09667e-56 5.0267e-57 2.27097e-57 1.0114e-57 4.44096e-58 1.92279e-58 8.21013e-59 3.45768e-59 1.4364e-59 5.88498e-60 2.37335e-60 9.29223e-61 3.18499e-61 0 
0 1.23396e-83 5.36244e-83 2.19067e-82 8.84352e-82 3.53745e-81 1.40221e-80 5.50763e-80 2.14346e-79 8.26483e-79 3.1571e-78 1.19466e-77 4.4779e-77 1.66241e-76 6.11234e-76 2.22559e-75 8.02445e-75 2.86473e-74 1.01255e-73 3.54303e-73 1.22722e-72 4.20747e-72 1.42769e-71 4.79424e-71 1.5931e-70 5.23795e-70 1.70386e-69 5.48304e-69 1.74535e-68 5.49504e-68 1.71099e-67 5.26826e-67 1.60393e-66 4.8279e-66 1.43661e-65 4.22553e-65 1.2284e-64 3.52909e-64 1.00186e-63 2.81007e-63 7.78663e-63 2.13133e-62 5.76193e-62 1.53834e-61 4.05553e-61 1.05561e-60 2.71245e-60 6.87973e-60 1.72217e-59 4.25419e-59 1.03691e-58 2.49336e-58 5.9142e-58 1.38361e-57 3.19209e-57 7.26145e-57 1.62854e-56 3.60028e-56 7.84471e-56 1.68445e-55 3.56386e-55 7.42844e-55 1.52521e-54 3.08426e-54 6.14188e-54 1.20426e-53 2.32455e-53 4.41675e-53 8.25939e-53 1.5199e-52 2.75196e-52 4.90202e-52 8.58924e-52 1.48022e-51 2.50865e-51 4.18064e-51 6.84995e-51 1.10339e-50 1.74715e-50 2.71927e-50 4.15971e-50 6.25369e-50 9.23959e-50 1.34152e-49 1.91411e-49 2.68387e-49 3.69825e-49 5.00832e-49 6.66631e-49 8.7222e-49 1.12196e-48 1.41911e-48 1.76541e-48 2.16064e-48 2.60235e-48 3.08573e-48 3.60371e-48 4.14721e-48 4.70562e-48 5.2675e-48 5.82125e-48 6.35589e-48 6.86169e-48 7.33071e-48 7.75713e-48 8.13726e-48 8.46948e-48 8.75384e-48 8.99171e-48 9.18522e-48 9.33679e-48 9.44883e-48 9.52343e-48 9.56233e-48 9.56697e-48 9.53881e-48 9.47956e-48 9.39159e-48 9.27826e-48 9.14414e-48 8.99506e-48 8.83802e-48 8.68091e-48 8.532e-48 8.39936e-48 8.29027e-48 8.21056e-48 8.16415e-48 8.15276e-48 8.17578e-48 8.23039e-48 8.3119e-48 8.41425e-48 8.53055e-48 8.65369e-48 8.7769e-48 8.89417e-48 9.00066e-48 9.09281e-48 9.16844e-48 9.22669e-48 9.26787e-48 9.29327e-48 9.30491e-48 9.30533e-48 9.29738e-48 9.28398e-48 9.26806e-48 9.25233e-48 9.23928e-48 9.23108e-48 9.22956e-48 9.23618e-48 9.25203e-48 9.27781e-48 9.31386e-48 9.36017e-48 9.41637e-48 9.48181e-48 9.5556e-48 9.63663e-48 9.72365e-48 9.81527e-48 9.91003e-48 1.00063e-47 1.01024e-47 1.01964e-47 1.0286e-47 1.0369e-47 1.04427e-47 1.05046e-47 1.0552e-47 1.05827e-47 1.0595e-47 1.05877e-47 1.05608e-47 1.05148e-47 1.0451e-47 1.03711e-47 1.02773e-47 1.01712e-47 1.00542e-47 9.92675e-48 9.78835e-48 9.63764e-48 9.47237e-48 9.28973e-48 9.08659e-48 8.85994e-48 8.6071e-48 8.32607e-48 8.0157e-48 7.67577e-48 7.30708e-48 6.9114e-48 6.49144e-48 6.0508e-48 5.59389e-48 5.12586e-48 4.65244e-48 4.17986e-48 3.71458e-48 3.2631e-48 2.83159e-48 2.42568e-48 2.05011e-48 1.7085e-48 1.40322e-48 1.13528e-48 9.04423e-49 7.09206e-49 5.47231e-49 4.15386e-49 3.10113e-49 2.27667e-49 1.64335e-49 1.16618e-49 8.13526e-50 5.57867e-50 3.7604e-50 2.49162e-50 1.62286e-50 1.03909e-50 6.54063e-51 4.0477e-51 2.46295e-51 1.47367e-51 8.67128e-52 5.01827e-52 2.85667e-52 1.59975e-52 8.81429e-53 4.7788e-53 2.54979e-53 1.33906e-53 6.92261e-54 3.52347e-54 1.76589e-54 8.71588e-55 4.23715e-55 2.02914e-55 9.57391e-56 4.45109e-56 2.03941e-56 9.21014e-57 4.10025e-57 1.79969e-57 7.78915e-58 3.32464e-58 1.39965e-58 5.81231e-59 2.38047e-59 9.59678e-60 3.75614e-60 1.28711e-60 0 
0 4.8791e-83 2.1205e-82 8.66357e-82 3.49777e-81 1.39928e-80 5.54726e-80 2.17913e-79 8.48183e-79 3.27089e-78 1.24962e-77 4.72932e-77 1.77293e-76 6.58298e-76 2.42081e-75 8.81594e-75 3.17917e-74 1.13517e-73 4.01302e-73 1.40446e-72 4.86567e-72 1.66851e-71 5.6628e-71 1.902e-70 6.32164e-70 2.07896e-69 6.76427e-69 2.17727e-68 6.93233e-68 2.18313e-67 6.79937e-67 2.09413e-66 6.37738e-66 1.92016e-65 5.71535e-65 1.68156e-64 4.88992e-64 1.40527e-63 3.99063e-63 1.11968e-62 3.10362e-62 8.49798e-62 2.29817e-61 6.13789e-61 1.61871e-60 4.21486e-60 1.08344e-59 2.74901e-59 6.88409e-59 1.70121e-58 4.14811e-58 9.97859e-58 2.36785e-57 5.54177e-57 1.27906e-56 2.91085e-56 6.53095e-56 1.44444e-55 3.14865e-55 6.76383e-55 1.43166e-54 2.98541e-54 6.13227e-54 1.24059e-53 2.47153e-53 4.84805e-53 9.36207e-53 1.77958e-52 3.32921e-52 6.12891e-52 1.11016e-51 1.97828e-51 3.46763e-51 5.97813e-51 1.01352e-50 1.68961e-50 2.76933e-50 4.46225e-50 7.06778e-50 1.10033e-49 1.68363e-49 2.53176e-49 3.74136e-49 5.43321e-49 7.75344e-49 1.08729e-48 1.49839e-48 2.02933e-48 2.70125e-48 3.53434e-48 4.5462e-48 5.74995e-48 7.15243e-48 8.75255e-48 1.05402e-47 1.24956e-47 1.45899e-47 1.67859e-47 1.90407e-47 2.13077e-47 2.354e-47 2.5693e-47 2.77277e-47 2.96122e-47 3.13232e-47 3.28464e-47 3.41756e-47 3.53115e-47 3.62601e-47 3.70303e-47 3.76324e-47 3.80763e-47 3.83706e-47 3.85223e-47 3.85373e-47 3.84215e-47 3.81815e-47 3.78268e-47 3.73708e-47 3.68316e-47 3.62326e-47 3.56018e-47 3.49707e-47 3.43727e-47 3.38401e-47 3.3402e-47 3.3082e-47 3.28958e-47 3.28502e-47 3.29428e-47 3.31622e-47 3.34896e-47 3.39007e-47 3.43676e-47 3.48618e-47 3.53561e-47 3.58265e-47 3.62535e-47 3.66228e-47 3.69258e-47 3.71589e-47 3.73235e-47 3.74248e-47 3.74709e-47 3.74721e-47 3.74396e-47 3.73855e-47 3.73212e-47 3.72578e-47 3.72051e-47 3.7172e-47 3.71657e-47 3.7192e-47 3.72553e-47 3.73585e-47 3.75029e-47 3.76884e-47 3.79136e-47 3.81759e-47 3.84716e-47 3.87964e-47 3.91453e-47 3.95126e-47 3.98926e-47 4.02788e-47 4.06643e-47 4.10412e-47 4.14011e-47 4.17342e-47 4.20303e-47 4.22788e-47 4.24693e-47 4.25929e-47 4.26424e-47 4.26137e-47 4.2506e-47 4.23215e-47 4.20658e-47 4.17459e-47 4.137e-47 4.09452e-47 4.04767e-47 3.99666e-47 3.94131e-47 3.88106e-47 3.81501e-47 3.74202e-47 3.66085e-47 3.57027e-47 3.46919e-47 3.3568e-47 3.23262e-47 3.09653e-47 2.94883e-47 2.79021e-47 2.62171e-47 2.44477e-47 2.26114e-47 2.07285e-47 1.88222e-47 1.69175e-47 1.50405e-47 1.32176e-47 1.14739e-47 9.83241e-48 8.31255e-48 6.92928e-48 5.69242e-48 4.60636e-48 3.67022e-48 2.87834e-48 2.22113e-48 1.68605e-48 1.25876e-48 9.24077e-49 6.66976e-49 4.73264e-49 3.30108e-49 2.26333e-49 1.52537e-49 1.01049e-49 6.58014e-50 4.21211e-50 2.65063e-50 1.63989e-50 9.97538e-51 5.96672e-51 3.50975e-51 2.03047e-51 1.15545e-51 6.46822e-52 3.56252e-52 1.93074e-52 1.02977e-52 5.40589e-53 2.7936e-53 1.42132e-53 7.12049e-54 3.51303e-54 1.70713e-54 8.17203e-55 3.85417e-55 1.79115e-55 8.20344e-56 3.70325e-56 1.64799e-56 7.23053e-57 3.12818e-57 1.33468e-57 5.61674e-58 2.33158e-58 9.54555e-59 3.84685e-59 1.50513e-59 5.15624e-60 0 
0 1.91155e-82 8.30854e-82 3.39492e-81 1.3708e-80 5.4845e-80 2.17452e-79 8.54324e-79 3.32572e-78 1.28269e-77 4.90115e-77 1.85516e-76 6.9557e-76 2.5831e-75 9.50059e-75 3.46046e-74 1.24812e-73 4.45739e-73 1.57607e-72 5.51695e-72 1.9117e-71 6.55685e-71 2.22583e-70 7.47769e-70 2.48591e-69 8.17717e-69 2.66123e-68 8.56806e-68 2.72873e-67 8.59556e-67 2.67782e-66 8.24967e-66 2.51303e-65 7.56866e-65 2.25348e-64 6.6322e-64 1.92922e-63 5.546e-63 1.57544e-62 4.42182e-62 1.2261e-61 3.35833e-61 9.08542e-61 2.42738e-60 6.40398e-60 1.66812e-59 4.28957e-59 1.08882e-58 2.72771e-58 6.74346e-58 1.64495e-57 3.95869e-57 9.39766e-57 2.20038e-56 5.08071e-56 1.15676e-55 2.59649e-55 5.74513e-55 1.2529e-54 2.69264e-54 5.70189e-54 1.18953e-53 2.44449e-53 4.94754e-53 9.86094e-53 1.93514e-52 3.73858e-52 7.10951e-52 1.33061e-51 2.45062e-51 4.44077e-51 7.91656e-51 1.38821e-50 2.39417e-50 4.06055e-50 6.77164e-50 1.11028e-49 1.78959e-49 2.83541e-49 4.41553e-49 6.75805e-49 1.01649e-48 1.50247e-48 2.18231e-48 3.11478e-48 4.36858e-48 6.02095e-48 8.15504e-48 1.08557e-47 1.42038e-47 1.82698e-47 2.31059e-47 2.87389e-47 3.51636e-47 4.23384e-47 5.01828e-47 5.85796e-47 6.7379e-47 7.6407e-47 8.54764e-47 9.43983e-47 1.02995e-46 1.11109e-46 1.18615e-46 1.25421e-46 1.3147e-46 1.36741e-46 1.41237e-46 1.44985e-46 1.48023e-46 1.50392e-46 1.52134e-46 1.53283e-46 1.53868e-46 1.53912e-46 1.53439e-46 1.52475e-46 1.51057e-46 1.49238e-46 1.47088e-46 1.44702e-46 1.42189e-46 1.39677e-46 1.37295e-46 1.35175e-46 1.33431e-46 1.32157e-46 1.31416e-46 1.31235e-46 1.31605e-46 1.32479e-46 1.33783e-46 1.35419e-46 1.37277e-46 1.39244e-46 1.4121e-46 1.43081e-46 1.44778e-46 1.46246e-46 1.47448e-46 1.48373e-46 1.49026e-46 1.49426e-46 1.49607e-46 1.49609e-46 1.49478e-46 1.49261e-46 1.49004e-46 1.4875e-46 1.48539e-46 1.48407e-46 1.4838e-46 1.48484e-46 1.48735e-46 1.49144e-46 1.49718e-46 1.50454e-46 1.51349e-46 1.52391e-46 1.53566e-46 1.54857e-46 1.56244e-46 1.57704e-46 1.59215e-46 1.6075e-46 1.62283e-46 1.63783e-46 1.65215e-46 1.66541e-46 1.6772e-46 1.68709e-46 1.69469e-46 1.69962e-46 1.7016e-46 1.70047e-46 1.6962e-46 1.68887e-46 1.67871e-46 1.666e-46 1.65107e-46 1.63421e-46 1.61561e-46 1.59538e-46 1.57344e-46 1.54956e-46 1.5234e-46 1.49449e-46 1.46234e-46 1.42646e-46 1.38641e-46 1.34186e-46 1.29261e-46 1.23861e-46 1.17996e-46 1.11693e-46 1.04992e-46 9.79482e-47 9.06313e-47 8.31219e-47 7.55116e-47 6.79002e-47 6.03925e-47 5.30943e-47 4.61075e-47 3.9525e-47 3.34258e-47 2.78712e-47 2.29017e-47 1.85359e-47 1.47712e-47 1.15856e-47 8.94094e-48 6.78732e-48 5.06722e-48 3.71982e-48 2.68469e-48 1.90477e-48 1.32843e-48 9.10673e-49 6.13629e-49 4.06418e-49 2.64589e-49 1.69326e-49 1.06525e-49 6.58852e-50 4.00652e-50 2.39569e-50 1.40871e-50 8.14679e-51 4.63424e-51 2.59328e-51 1.42775e-51 7.73478e-52 4.12373e-52 2.16392e-52 1.11779e-52 5.68468e-53 2.84671e-53 1.40389e-53 6.81923e-54 3.26298e-54 1.53827e-54 7.14583e-55 3.27141e-55 1.47619e-55 6.56648e-56 2.87986e-56 1.24542e-56 5.31162e-57 2.2344e-57 9.27161e-58 3.79436e-58 1.52855e-58 5.97853e-59 2.04754e-59 0 
0 7.4201e-82 3.22545e-81 1.31808e-80 5.32275e-80 2.12987e-79 8.44568e-79 3.31858e-78 1.29204e-77 4.98394e-77 1.90464e-76 7.21047e-76 2.70391e-75 1.0043e-74 3.69444e-74 1.34589e-73 4.85523e-73 1.73427e-72 6.13333e-72 2.14738e-71 7.44252e-71 2.55323e-70 8.66927e-70 2.91312e-69 9.68675e-69 3.18715e-68 1.03751e-67 3.34119e-67 1.06437e-66 3.35371e-66 1.04509e-65 3.22058e-65 9.81348e-65 2.95648e-64 8.80531e-64 2.5923e-63 7.54312e-63 2.16916e-62 6.16399e-62 1.73066e-61 4.80052e-61 1.31536e-60 3.5598e-60 9.51441e-60 2.51108e-59 6.54344e-59 1.68332e-58 4.27448e-58 1.07128e-57 2.64953e-57 6.46581e-57 1.55671e-56 3.69712e-56 8.66027e-56 2.00056e-55 4.55683e-55 1.0233e-54 2.26525e-54 4.94233e-54 1.06265e-53 2.2513e-53 4.69885e-53 9.6606e-53 1.95617e-52 3.90064e-52 7.65823e-52 1.4802e-51 2.81611e-51 5.27295e-51 9.71563e-51 1.76133e-50 3.14125e-50 5.51061e-50 9.50768e-50 1.61315e-49 2.69119e-49 4.41405e-49 7.11716e-49 1.128e-48 1.75715e-48 2.69009e-48 4.04725e-48 5.98361e-48 8.69284e-48 1.24093e-47 1.7407e-47 2.39937e-47 3.25007e-47 4.32656e-47 5.66102e-47 7.28135e-47 9.20817e-47 1.14519e-46 1.40101e-46 1.68657e-46 1.99863e-46 2.33248e-46 2.68209e-46 3.04051e-46 3.40025e-46 3.7538e-46 4.09408e-46 4.41488e-46 4.71123e-46 4.97954e-46 5.21765e-46 5.42474e-46 5.60111e-46 5.74784e-46 5.8665e-46 5.95883e-46 6.02649e-46 6.07089e-46 6.09319e-46 6.09432e-46 6.07515e-46 6.03674e-46 5.98051e-46 5.90852e-46 5.82358e-46 5.72932e-46 5.63012e-46 5.53091e-46 5.43691e-46 5.3532e-46 5.28437e-46 5.2341e-46 5.20488e-46 5.19776e-46 5.21236e-46 5.24688e-46 5.29836e-46 5.36295e-46 5.43627e-46 5.51385e-46 5.5914e-46 5.66514e-46 5.73202e-46 5.78981e-46 5.83716e-46 5.87353e-46 5.89914e-46 5.91482e-46 5.92185e-46 5.92184e-46 5.91659e-46 5.90795e-46 5.89774e-46 5.88769e-46 5.87934e-46 5.87405e-46 5.87298e-46 5.87703e-46 5.88689e-46 5.90299e-46 5.92555e-46 5.95456e-46 5.98979e-46 6.03084e-46 6.07714e-46 6.12799e-46 6.18262e-46 6.24017e-46 6.29971e-46 6.36024e-46 6.42069e-46 6.47983e-46 6.53631e-46 6.58863e-46 6.63517e-46 6.67425e-46 6.70426e-46 6.72376e-46 6.73164e-46 6.72724e-46 6.71043e-46 6.68159e-46 6.64157e-46 6.59153e-46 6.53273e-46 6.46635e-46 6.39322e-46 6.31367e-46 6.22744e-46 6.13367e-46 6.03094e-46 5.91747e-46 5.79128e-46 5.65042e-46 5.49316e-46 5.31815e-46 5.12459e-46 4.91221e-46 4.68139e-46 4.43311e-46 4.16894e-46 3.89102e-46 3.60203e-46 3.30513e-46 3.00393e-46 2.70238e-46 2.40465e-46 2.11495e-46 1.83736e-46 1.57562e-46 1.33292e-46 1.11173e-46 9.13733e-47 7.39699e-47 5.8956e-47 4.62468e-47 3.56928e-47 2.70965e-47 2.02295e-47 1.48498e-47 1.07167e-47 7.60267e-48 5.30154e-48 3.63373e-48 2.448e-48 1.62099e-48 1.05505e-48 6.75007e-49 4.24532e-49 2.62489e-49 1.59569e-49 9.53807e-50 5.60655e-50 3.24116e-50 1.843e-50 1.03092e-50 5.67354e-51 3.07235e-51 1.63731e-51 8.58812e-52 4.43436e-52 2.25419e-52 1.12834e-52 5.5621e-53 2.70055e-53 1.29164e-53 6.08655e-54 2.82619e-54 1.29329e-54 5.8333e-55 2.5937e-55 1.13703e-55 4.91514e-56 2.09539e-56 8.8109e-57 3.65459e-57 1.49502e-57 6.02031e-58 2.35383e-58 8.05915e-59 0 
0 2.8535e-81 1.24052e-80 5.06996e-80 2.04763e-79 8.19453e-79 3.24984e-78 1.27714e-77 4.97306e-77 1.91861e-76 7.33319e-76 2.7766e-75 1.04139e-74 3.86866e-74 1.42338e-73 5.18635e-73 1.87131e-72 6.68558e-72 2.36486e-71 8.28152e-71 2.87088e-70 9.85104e-70 3.3456e-69 1.12448e-68 3.74006e-68 1.23087e-67 4.00787e-67 1.29104e-66 4.11388e-66 1.2966e-65 4.04165e-65 1.24586e-64 3.79742e-64 1.14439e-63 3.40945e-63 1.00408e-62 2.92266e-62 8.40753e-62 2.38996e-61 6.71266e-61 1.86265e-60 5.10562e-60 1.38228e-59 3.69591e-59 9.75825e-59 2.54386e-58 6.54683e-58 1.66315e-57 4.16999e-57 1.03178e-56 2.51902e-56 6.06748e-56 1.44165e-55 3.37851e-55 7.80809e-55 1.77934e-54 3.99764e-54 8.85357e-54 1.9326e-53 4.15728e-53 8.81167e-53 1.84003e-52 3.78483e-52 7.66756e-52 1.52966e-51 3.00465e-51 5.81021e-51 1.10592e-50 2.07172e-50 3.81896e-50 6.92644e-50 1.23584e-49 2.16894e-49 3.74372e-49 6.35445e-49 1.06052e-48 1.7401e-48 2.80671e-48 4.44985e-48 6.93394e-48 1.06186e-47 1.59799e-47 2.3631e-47 3.43378e-47 4.90273e-47 6.87826e-47 9.48208e-47 1.2845e-46 1.71004e-46 2.23749e-46 2.87784e-46 3.63915e-46 4.5254e-46 5.53551e-46 6.66256e-46 7.89357e-46 9.20967e-46 1.0587e-45 1.19978e-45 1.34126e-45 1.48016e-45 1.61368e-45 1.7394e-45 1.85537e-45 1.96021e-45 2.05309e-45 2.13372e-45 2.20226e-45 2.25916e-45 2.30507e-45 2.3407e-45 2.36672e-45 2.3837e-45 2.39209e-45 2.39227e-45 2.38456e-45 2.36938e-45 2.34728e-45 2.31904e-45 2.28576e-45 2.24885e-45 2.21001e-45 2.17119e-45 2.1344e-45 2.10164e-45 2.07471e-45 2.05505e-45 2.04362e-45 2.04084e-45 2.04656e-45 2.06008e-45 2.08022e-45 2.10549e-45 2.13418e-45 2.16451e-45 2.19483e-45 2.22364e-45 2.24977e-45 2.27233e-45 2.2908e-45 2.30497e-45 2.31494e-45 2.32103e-45 2.32373e-45 2.32369e-45 2.3216e-45 2.31819e-45 2.31418e-45 2.31022e-45 2.30694e-45 2.30486e-45 2.30442e-45 2.30599e-45 2.30983e-45 2.3161e-45 2.32491e-45 2.33623e-45 2.34998e-45 2.36601e-45 2.38409e-45 2.40395e-45 2.42529e-45 2.44777e-45 2.47103e-45 2.49469e-45 2.51831e-45 2.54144e-45 2.56352e-45 2.58399e-45 2.6022e-45 2.6175e-45 2.62926e-45 2.6369e-45 2.64001e-45 2.63831e-45 2.63176e-45 2.6205e-45 2.60488e-45 2.58534e-45 2.5624e-45 2.5365e-45 2.50798e-45 2.47699e-45 2.4434e-45 2.4069e-45 2.36693e-45 2.32279e-45 2.27371e-45 2.21891e-45 2.15771e-45 2.08958e-45 2.01419e-45 1.93141e-45 1.84139e-45 1.74447e-45 1.64125e-45 1.53256e-45 1.41942e-45 1.30306e-45 1.18489e-45 1.06645e-45 9.49395e-46 8.35382e-46 7.26035e-46 6.22841e-46 5.27079e-46 4.39747e-46 3.6152e-46 2.92725e-46 2.33349e-46 1.83068e-46 1.41302e-46 1.07275e-46 8.00885e-47 5.8788e-47 4.24226e-47 3.00921e-47 2.0981e-47 1.43781e-47 9.68434e-48 6.41119e-48 4.17176e-48 2.66828e-48 1.67765e-48 1.03696e-48 6.30158e-49 3.76537e-49 2.21248e-49 1.27855e-49 7.26722e-50 4.0634e-50 2.23531e-50 1.20995e-50 6.44526e-51 3.37922e-51 1.74404e-51 8.86177e-52 4.43377e-52 2.18463e-52 1.06021e-52 5.06859e-53 2.38737e-53 1.10804e-53 5.06819e-54 2.28495e-54 1.01553e-54 4.44993e-55 1.92276e-55 8.19348e-56 3.4438e-56 1.42782e-56 5.8385e-57 2.35016e-57 9.18524e-58 3.14394e-58 0 