# vtk DataFile Version 3.0
Gray-Scott Simulation Output
ASCII
DATASET STRUCTURED_POINTS
DIMENSIONS 256 256 1
SPACING 1.0 1.0 1.0
ORIGIN 0 0 0
POINT_DATA 65536
SCALARS u double
LOOKUP_TABLE default
0 0 0 0 0 0 0 0 0 0 0 0 0 0 0 0 0 0 0 0 0 0 0 0 0 0 0 0 0 0 0 0 0 0 0 0 0 0 0 0 0 0 0 0 0 0 0 0 0 0 0 0 0 0 0 0 0 0 0 0 0 0 0 0 0 0 0 0 0 0 0 0 0 0 0 0 0 0 0 0 0 0 0 0 0 0 0 0 0 0 0 0 0 0 0 0 0 0 0 0 0 0 0 0 0 0 0 0 0 0 0 0 0 0 0 0 0 0 0 0 0 0 0 0 0 0 0 0 0 0 0 0 0 0 0 0 0 0 0 0 0 0 0 0 0 0 0 0 0 0 0 0 0 0 0 0 0 0 0 0 0 0 0 0 0 0 0 0 0 0 0 0 0 0 0 0 0 0 0 0 0 0 0 0 0 0 0 0 0 0 0 0 0 0 0 0 0 0 0 0 0 0 0 0 0 0 0 0 0 0 0 0 0 0 0 0 0 0 0 0 0 0 0 0 0 0 0 0 0 0 0 0 0 0 0 0 0 0 0 0 0 0 0 0 0 0 0 0 0 0 0 0 0 0 0 0 
0 1.024e-75 3.50479e-75 1.09088e-74 3.34061e-74 1.01398e-73 3.05272e-73 9.11622e-73 2.70016e-72 7.93212e-72 2.31095e-71 6.6768e-71 1.91293e-70 5.43447e-70 1.5308e-69 4.27523e-69 1.18373e-68 3.24915e-68 8.84076e-68 2.38442e-67 6.37418e-67 1.68883e-66 4.43444e-66 1.15387e-65 2.97518e-65 7.60112e-65 1.92407e-64 4.82521e-64 1.19876e-63 2.95011e-63 7.19129e-63 1.73622e-62 4.15148e-62 9.83036e-62 2.30501e-61 5.35155e-61 1.23016e-60 2.79949e-60 6.30674e-60 1.40638e-59 3.10414e-59 6.78086e-59 1.46588e-58 3.13579e-58 6.63738e-58 1.38999e-57 2.87974e-57 5.90187e-57 1.19642e-56 2.3988e-56 4.75651e-56 9.32672e-56 1.80833e-55 3.46654e-55 6.56975e-55 1.23082e-54 2.2793e-54 4.17181e-54 7.54622e-54 1.3489e-53 2.3825e-53 4.15773e-53 7.16822e-53 1.22085e-52 2.05385e-52 3.4127e-52 5.60035e-52 9.0758e-52 1.45236e-51 2.29483e-51 3.57998e-51 5.51363e-51 8.38283e-51 1.2581e-50 1.86373e-50 2.72505e-50 3.9325e-50 5.60078e-50 7.87222e-50 1.09196e-49 1.49474e-49 2.01917e-49 2.69173e-49 3.54115e-49 4.59753e-49 5.89102e-49 7.45017e-49 9.30004e-49 1.146e-48 1.39418e-48 1.67474e-48 1.98672e-48 2.32795e-48 2.69497e-48 3.08308e-48 3.48654e-48 3.89872e-48 4.31248e-48 4.72047e-48 5.1155e-48 5.49095e-48 5.84104e-48 6.1611e-48 6.44772e-48 6.69881e-48 6.91356e-48 7.09233e-48 7.23643e-48 7.34789e-48 7.42924e-48 7.48326e-48 7.51279e-48 7.52062e-48 7.50935e-48 7.48146e-48 7.43924e-48 7.38495e-48 7.32082e-48 7.24919e-48 7.1725e-48 7.09336e-48 7.01449e-48 6.93868e-48 6.86866e-48 6.80697e-48 6.75583e-48 6.717e-48 6.69166e-48 6.68034e-48 6.68287e-48 6.69842e-48 6.72555e-48 6.76235e-48 6.80653e-48 6.85562e-48 6.90714e-48 6.95871e-48 7.00824e-48 7.05396e-48 7.09458e-48 7.12923e-48 7.15753e-48 7.17952e-48 7.19564e-48 7.20661e-48 7.21342e-48 7.21721e-48 7.21922e-48 7.22069e-48 7.22282e-48 7.22674e-48 7.23344e-48 7.24374e-48 7.25831e-48 7.27762e-48 7.30195e-48 7.33142e-48 7.36593e-48 7.40524e-48 7.44893e-48 7.49645e-48 7.5471e-48 7.60004e-48 7.65434e-48 7.70895e-48 7.76274e-48 7.81452e-48 7.86304e-48 7.90707e-48 7.94541e-48 7.97694e-48 8.00067e-48 8.01579e-48 8.02168e-48 8.01796e-48 8.0045e-48 7.98134e-48 7.94875e-48 7.90709e-48 7.85678e-48 7.7982e-48 7.73165e-48 7.65725e-48 7.57488e-48 7.48417e-48 7.38448e-48 7.27491e-48 7.15431e-48 7.02138e-48 6.87468e-48 6.71277e-48 6.53427e-48 6.33795e-48 6.12289e-48 5.88852e-48 5.63478e-48 5.36216e-48 5.07179e-48 4.76549e-48 4.44574e-48 4.11568e-48 3.77899e-48 3.43978e-48 3.1024e-48 2.7713e-48 2.45078e-48 2.14481e-48 1.85688e-48 1.58982e-48 1.3457e-48 1.12582e-48 9.3071e-49 7.60132e-49 6.1322e-49 4.88571e-49 3.84386e-49 2.98597e-49 2.29005e-49 1.73385e-49 1.29588e-49 9.56055e-50 6.96238e-50 5.00476e-50 3.55105e-50 2.48704e-50 1.71937e-50 1.17335e-50 7.90445e-51 5.25676e-51 3.45134e-51 2.2372e-51 1.43182e-51 9.04841e-52 5.6465e-52 3.47969e-52 2.1178e-52 1.27306e-52 7.55894e-53 4.4336e-53 2.56903e-53 1.47074e-53 8.31935e-54 4.65016e-54 2.56866e-54 1.40231e-54 7.5668e-55 4.036e-55 2.12812e-55 1.10937e-55 5.71741e-56 2.91254e-56 1.46479e-56 7.23267e-57 3.41853e-57 1.35513e-57 0 
0 3.49863e-75 1.19769e-74 3.72872e-74 1.14212e-73 3.46753e-73 1.04421e-72 3.11909e-72 9.24095e-72 2.71539e-71 7.91321e-71 2.28693e-70 6.554e-70 1.86248e-69 5.24786e-69 1.46607e-68 4.0605e-68 1.1149e-67 3.03455e-67 8.18709e-67 2.18935e-66 5.80261e-66 1.52415e-65 3.96733e-65 1.02331e-64 2.61536e-64 6.6227e-64 1.66147e-63 4.12928e-63 1.0166e-62 2.47906e-62 5.98769e-62 1.4323e-61 3.39295e-61 7.95905e-61 1.84864e-60 4.25126e-60 9.67886e-60 2.18142e-59 4.86666e-59 1.07464e-58 2.34856e-58 5.0794e-58 1.08708e-57 2.30203e-57 4.8231e-57 9.99707e-57 2.04981e-56 4.1573e-56 8.33929e-56 1.65436e-55 3.24547e-55 6.29554e-55 1.20742e-54 2.28938e-54 4.29112e-54 7.95022e-54 1.45582e-53 2.63459e-53 4.71152e-53 8.32556e-53 1.45356e-52 2.50714e-52 4.27184e-52 7.18963e-52 1.19513e-51 1.96204e-51 3.18088e-51 5.09213e-51 8.04884e-51 1.25607e-50 1.93515e-50 2.94309e-50 4.41829e-50 6.54699e-50 9.57507e-50 1.38208e-49 1.9688e-49 2.76775e-49 3.83972e-49 5.25669e-49 7.10165e-49 9.46765e-49 1.24556e-48 1.61712e-48 2.072e-48 2.62017e-48 3.27037e-48 4.0293e-48 4.90091e-48 5.88572e-48 6.9802e-48 8.17644e-48 9.46203e-48 1.08203e-47 1.22307e-47 1.36699e-47 1.51127e-47 1.6533e-47 1.79058e-47 1.92078e-47 2.0419e-47 2.15233e-47 2.2509e-47 2.33693e-47 2.41017e-47 2.4708e-47 2.51933e-47 2.55651e-47 2.58326e-47 2.6006e-47 2.60954e-47 2.61108e-47 2.60613e-47 2.59556e-47 2.58017e-47 2.56073e-47 2.53801e-47 2.5128e-47 2.48593e-47 2.4583e-47 2.43082e-47 2.40446e-47 2.38013e-47 2.35872e-47 2.34098e-47 2.32751e-47 2.31871e-47 2.31477e-47 2.31562e-47 2.32097e-47 2.33032e-47 2.34301e-47 2.35825e-47 2.37519e-47 2.39295e-47 2.41073e-47 2.4278e-47 2.44355e-47 2.45753e-47 2.46944e-47 2.47916e-47 2.4867e-47 2.49222e-47 2.49595e-47 2.49826e-47 2.49952e-47 2.50017e-47 2.50064e-47 2.50135e-47 2.50267e-47 2.50495e-47 2.50849e-47 2.5135e-47 2.52015e-47 2.52854e-47 2.5387e-47 2.55061e-47 2.56417e-47 2.57926e-47 2.59566e-47 2.61315e-47 2.63143e-47 2.65018e-47 2.66905e-47 2.68763e-47 2.70552e-47 2.72229e-47 2.73752e-47 2.75078e-47 2.76169e-47 2.76992e-47 2.77517e-47 2.77725e-47 2.77602e-47 2.77143e-47 2.76351e-47 2.75236e-47 2.7381e-47 2.72089e-47 2.70087e-47 2.67814e-47 2.65275e-47 2.62468e-47 2.5938e-47 2.55989e-47 2.52264e-47 2.48165e-47 2.43646e-47 2.38656e-47 2.33145e-47 2.27062e-47 2.20362e-47 2.1301e-47 2.04983e-47 1.96277e-47 1.86904e-47 1.76902e-47 1.66331e-47 1.55275e-47 1.43843e-47 1.32161e-47 1.20372e-47 1.08631e-47 9.70919e-48 8.5908e-48 7.52199e-48 6.51515e-48 5.58041e-48 4.72528e-48 3.95452e-48 3.27012e-48 2.67144e-48 2.15557e-48 1.7177e-48 1.35158e-48 1.05003e-48 8.0535e-49 6.09764e-49 4.55732e-49 3.3621e-49 2.44824e-49 1.75969e-49 1.2484e-49 8.74206e-50 6.04258e-50 4.1228e-50 2.77676e-50 1.8462e-50 1.21181e-50 7.85287e-51 5.0244e-51 3.17417e-51 1.98013e-51 1.21985e-51 7.42161e-52 4.45966e-52 2.64698e-52 1.55195e-52 8.98917e-53 5.14412e-53 2.90862e-53 1.62512e-53 8.97309e-54 4.89659e-54 2.64105e-54 1.40809e-54 7.42139e-55 3.86702e-55 1.99209e-55 1.01437e-55 5.0993e-56 2.51683e-56 1.18914e-56 4.71254e-57 0 
0 1.08669e-74 3.72091e-74 1.15873e-73 3.55026e-73 1.0782e-72 3.24786e-72 9.70445e-72 2.87606e-71 8.45383e-71 2.46443e-70 7.12462e-70 2.04251e-69 5.80633e-69 1.63662e-68 4.5738e-68 1.26726e-67 3.48084e-67 9.47787e-67 2.55809e-66 6.84346e-66 1.81452e-65 4.76809e-65 1.24165e-64 3.20402e-64 8.19233e-64 2.07541e-63 5.20904e-63 1.2952e-62 3.19018e-62 7.78322e-62 1.88078e-61 4.50116e-61 1.0668e-60 2.50371e-60 5.81828e-60 1.3387e-59 3.0494e-59 6.87636e-59 1.5349e-58 3.39113e-58 7.41512e-58 1.6046e-57 3.43601e-57 7.28023e-57 1.52617e-56 3.16516e-56 6.49353e-56 1.31773e-55 2.64479e-55 5.24978e-55 1.03047e-54 2.00005e-54 3.83809e-54 7.2815e-54 1.36559e-53 2.53149e-53 4.63817e-53 8.39838e-53 1.50274e-52 2.65689e-52 4.64114e-52 8.00941e-52 1.36541e-51 2.2992e-51 3.82386e-51 6.28063e-51 1.0187e-50 1.63153e-50 2.57999e-50 4.02792e-50 6.20803e-50 9.44508e-50 1.41843e-49 2.10251e-49 3.07588e-49 4.441e-49 6.32781e-49 8.89757e-49 1.23459e-48 1.69043e-48 2.28398e-48 3.04514e-48 4.00631e-48 5.20137e-48 6.6641e-48 8.42637e-48 1.05159e-47 1.29538e-47 1.57522e-47 1.89121e-47 2.24214e-47 2.62537e-47 3.03682e-47 3.47105e-47 3.92138e-47 4.38023e-47 4.83942e-47 5.29062e-47 5.72576e-47 6.13742e-47 6.51924e-47 6.86616e-47 7.1746e-47 7.4425e-47 7.66929e-47 7.85568e-47 8.00349e-47 8.11532e-47 8.19427e-47 8.24367e-47 8.26691e-47 8.26718e-47 8.24749e-47 8.21059e-47 8.15901e-47 8.09517e-47 8.02146e-47 7.94032e-47 7.85433e-47 7.76622e-47 7.67887e-47 7.59521e-47 7.51814e-47 7.45035e-47 7.39422e-47 7.35161e-47 7.32377e-47 7.31124e-47 7.31381e-47 7.33057e-47 7.35993e-47 7.39979e-47 7.44766e-47 7.50085e-47 7.55664e-47 7.61245e-47 7.666e-47 7.71539e-47 7.75919e-47 7.79649e-47 7.82688e-47 7.8504e-47 7.86754e-47 7.8791e-47 7.88616e-47 7.88997e-47 7.89186e-47 7.89319e-47 7.89527e-47 7.89933e-47 7.90642e-47 7.91745e-47 7.93314e-47 7.954e-47 7.98033e-47 8.01225e-47 8.04967e-47 8.09231e-47 8.13972e-47 8.19131e-47 8.24631e-47 8.30382e-47 8.36282e-47 8.42219e-47 8.48068e-47 8.537e-47 8.58982e-47 8.63778e-47 8.67958e-47 8.71401e-47 8.74e-47 8.75667e-47 8.76336e-47 8.75968e-47 8.74549e-47 8.72089e-47 8.68619e-47 8.64183e-47 8.58831e-47 8.5261e-47 8.45558e-47 8.37692e-47 8.29005e-47 8.19461e-47 8.08992e-47 7.975e-47 7.8486e-47 7.70922e-47 7.55525e-47 7.38499e-47 7.19678e-47 6.98911e-47 6.76077e-47 6.51091e-47 6.23924e-47 5.94608e-47 5.63246e-47 5.30021e-47 4.95194e-47 4.591e-47 4.22143e-47 3.84778e-47 3.47494e-47 3.10794e-47 2.75168e-47 2.41076e-47 2.08921e-47 1.79035e-47 1.51667e-47 1.26978e-47 1.05038e-47 8.58338e-48 6.92759e-48 5.52146e-48 4.34526e-48 3.37615e-48 2.58961e-48 1.96075e-48 1.46543e-48 1.08104e-48 7.87134e-49 5.65688e-49 4.01262e-49 2.80936e-49 1.94144e-49 1.3243e-49 8.91697e-50 5.92694e-50 3.88909e-50 2.51938e-50 1.61137e-50 1.0176e-50 6.34555e-51 3.90754e-51 2.37635e-51 1.42732e-51 8.46788e-52 4.96251e-52 2.87301e-52 1.64331e-52 9.28716e-53 5.18639e-53 2.86222e-53 1.56111e-53 8.41575e-54 4.48457e-54 2.36239e-54 1.23031e-54 6.33464e-55 3.22389e-55 1.61984e-55 7.99097e-56 3.77386e-56 1.49508e-56 0 
0 3.3205e-74 1.13724e-73 3.54252e-73 1.08573e-72 3.29833e-72 9.93876e-72 2.97062e-71 8.80678e-71 2.58953e-70 7.55152e-70 2.1839e-69 6.26315e-69 1.78111e-68 5.02226e-68 1.40409e-67 3.89181e-67 1.06941e-66 2.91304e-66 7.86561e-66 2.10511e-65 5.584e-65 1.46798e-64 3.82442e-64 9.87324e-64 2.52564e-63 6.40134e-63 1.60742e-62 3.99872e-62 9.85396e-62 2.40531e-61 5.81528e-61 1.39245e-60 3.30189e-60 7.7534e-60 1.80275e-59 4.15009e-59 9.45863e-59 2.13409e-58 4.76625e-58 1.05363e-57 2.3052e-57 4.99123e-57 1.06942e-56 2.26722e-56 4.75564e-56 9.86865e-56 2.02583e-55 4.11347e-55 8.26105e-55 1.64077e-54 3.22259e-54 6.25852e-54 1.20173e-53 2.28127e-53 4.28092e-53 7.94056e-53 1.45573e-52 2.63745e-52 4.72201e-52 8.35345e-52 1.46004e-51 2.52107e-51 4.30017e-51 7.2449e-51 1.20555e-50 1.98112e-50 3.21491e-50 5.15141e-50 8.14984e-50 1.27293e-49 1.96272e-49 2.98733e-49 4.48796e-49 6.65471e-49 9.73865e-49 1.40649e-48 2.00457e-48 2.81928e-48 3.91266e-48 5.35815e-48 7.24037e-48 9.65403e-48 1.27017e-47 1.64904e-47 2.11268e-47 2.6711e-47 3.33297e-47 4.10484e-47 4.99038e-47 5.98965e-47 7.09854e-47 8.30844e-47 9.60612e-47 1.0974e-46 1.23906e-46 1.38318e-46 1.52715e-46 1.66832e-46 1.80414e-46 1.93228e-46 2.05075e-46 2.15799e-46 2.25291e-46 2.33492e-46 2.40389e-46 2.46012e-46 2.50424e-46 2.53711e-46 2.55978e-46 2.57333e-46 2.57886e-46 2.57741e-46 2.56991e-46 2.55725e-46 2.54021e-46 2.51954e-46 2.49596e-46 2.47022e-46 2.4431e-46 2.41542e-46 2.38806e-46 2.36191e-46 2.33786e-46 2.31673e-46 2.29925e-46 2.28598e-46 2.2773e-46 2.27337e-46 2.27414e-46 2.2793e-46 2.28837e-46 2.3007e-46 2.3155e-46 2.33194e-46 2.34918e-46 2.36643e-46 2.38296e-46 2.3982e-46 2.41171e-46 2.4232e-46 2.43254e-46 2.43976e-46 2.445e-46 2.44852e-46 2.45064e-46 2.45176e-46 2.4523e-46 2.45266e-46 2.45327e-46 2.45448e-46 2.45665e-46 2.46004e-46 2.46487e-46 2.47131e-46 2.47944e-46 2.48931e-46 2.50088e-46 2.51408e-46 2.52875e-46 2.54472e-46 2.56174e-46 2.57955e-46 2.59782e-46 2.61621e-46 2.63433e-46 2.65179e-46 2.66816e-46 2.68303e-46 2.69601e-46 2.7067e-46 2.71478e-46 2.71999e-46 2.72211e-46 2.72104e-46 2.71672e-46 2.70921e-46 2.69859e-46 2.68502e-46 2.66865e-46 2.64966e-46 2.62814e-46 2.60419e-46 2.57777e-46 2.54879e-46 2.51705e-46 2.48223e-46 2.44394e-46 2.40172e-46 2.35506e-46 2.30339e-46 2.24618e-46 2.18294e-46 2.11323e-46 2.03677e-46 1.95342e-46 1.86323e-46 1.76649e-46 1.66374e-46 1.55576e-46 1.44359e-46 1.32848e-46 1.21185e-46 1.09526e-46 9.80287e-47 8.68503e-47 7.61374e-47 6.60198e-47 5.66051e-47 4.79747e-47 4.01818e-47 3.32511e-47 2.718e-47 2.19425e-47 1.74923e-47 1.37683e-47 1.06988e-47 8.20686e-48 6.21407e-48 4.6442e-48 3.42582e-48 2.49419e-48 1.79226e-48 1.2711e-48 8.89763e-49 6.14739e-49 4.19222e-49 2.82195e-49 1.87511e-49 1.22999e-49 7.9651e-50 5.09245e-50 3.21467e-50 2.00377e-50 1.23337e-50 7.49729e-51 4.50107e-51 2.66907e-51 1.56342e-51 9.04678e-52 5.17195e-52 2.92142e-52 1.6306e-52 8.99403e-53 4.90288e-53 2.64166e-53 1.40691e-53 7.40729e-54 3.85553e-54 1.98404e-54 1.00918e-54 5.06788e-55 2.49877e-55 1.17953e-55 4.67129e-56 0 
0 1.00564e-73 3.44507e-73 1.07346e-72 3.29102e-72 1.0001e-71 3.01455e-71 9.01327e-71 2.67301e-70 7.86242e-70 2.29363e-69 6.63561e-69 1.90371e-68 5.4158e-68 1.5277e-67 4.27273e-67 1.18478e-66 3.25692e-66 8.87546e-66 2.39751e-65 6.41935e-65 1.70354e-64 4.48045e-64 1.1678e-63 3.01622e-63 7.71933e-63 1.95744e-62 4.91768e-62 1.22396e-61 3.01769e-61 7.36984e-61 1.78272e-60 4.27091e-60 1.0133e-59 2.38069e-59 5.5384e-59 1.2757e-58 2.90914e-58 6.56744e-58 1.46761e-57 3.24619e-57 7.10644e-57 1.5396e-56 3.30073e-56 7.00193e-56 1.46959e-55 3.05149e-55 6.26794e-55 1.2735e-54 2.55915e-54 5.08601e-54 9.99555e-54 1.94242e-53 3.73209e-53 7.08908e-53 1.33113e-52 2.4706e-52 4.53208e-52 8.21613e-52 1.47187e-51 2.60537e-51 4.55641e-51 7.87216e-51 1.34351e-50 2.2648e-50 3.77068e-50 6.19975e-50 1.0066e-49 1.61372e-49 2.55422e-49 3.99128e-49 6.15682e-49 9.37475e-49 1.40894e-48 2.08992e-48 3.05946e-48 4.4199e-48 6.30108e-48 8.86409e-48 1.23043e-47 1.68527e-47 2.27755e-47 3.03705e-47 3.99598e-47 5.18789e-47 6.64615e-47 8.402e-47 1.04824e-46 1.29073e-46 1.56879e-46 1.88234e-46 2.23001e-46 2.609e-46 3.01505e-46 3.44254e-46 3.88464e-46 4.33366e-46 4.78137e-46 5.21942e-46 5.6398e-46 6.03526e-46 6.39963e-46 6.72813e-46 7.01751e-46 7.26607e-46 7.47363e-46 7.64129e-46 7.77122e-46 7.86635e-46 7.93006e-46 7.96591e-46 7.97741e-46 7.96786e-46 7.94027e-46 7.89735e-46 7.84154e-46 7.77511e-46 7.70026e-46 7.61922e-46 7.53434e-46 7.44808e-46 7.36309e-46 7.28205e-46 7.20762e-46 7.14231e-46 7.08829e-46 7.04729e-46 7.02046e-46 7.00827e-46 7.01052e-46 7.0263e-46 7.05407e-46 7.09183e-46 7.13719e-46 7.18758e-46 7.24041e-46 7.29322e-46 7.34383e-46 7.39045e-46 7.43173e-46 7.4668e-46 7.49528e-46 7.51723e-46 7.53311e-46 7.5437e-46 7.55004e-46 7.5533e-46 7.55478e-46 7.55575e-46 7.55747e-46 7.5611e-46 7.56764e-46 7.57795e-46 7.59271e-46 7.61241e-46 7.63733e-46 7.66757e-46 7.70305e-46 7.74352e-46 7.78853e-46 7.83753e-46 7.88978e-46 7.94445e-46 8.00055e-46 8.05701e-46 8.11268e-46 8.1663e-46 8.21662e-46 8.26235e-46 8.30225e-46 8.33518e-46 8.36011e-46 8.37623e-46 8.38292e-46 8.37982e-46 8.36683e-46 8.34409e-46 8.31192e-46 8.27078e-46 8.22122e-46 8.16374e-46 8.09877e-46 8.02653e-46 7.94701e-46 7.85992e-46 7.76464e-46 7.66024e-46 7.54552e-46 7.419e-46 7.27905e-46 7.12392e-46 6.95185e-46 6.76119e-46 6.55054e-46 6.31885e-46 6.06554e-46 5.79066e-46 5.49499e-46 5.18006e-46 4.84823e-46 4.50265e-46 4.14717e-46 3.78622e-46 3.42463e-46 3.06741e-46 2.71952e-46 2.3856e-46 2.06981e-46 1.7756e-46 1.5056e-46 1.26157e-46 1.04436e-46 8.53946e-47 6.89575e-47 5.49839e-47 4.3285e-47 3.3639e-47 2.58056e-47 1.954e-47 1.46033e-47 1.07715e-47 7.84151e-48 5.63394e-48 3.995e-48 2.7959e-48 1.93124e-48 1.31666e-48 8.86034e-49 5.88557e-49 3.85932e-49 2.49828e-49 1.59664e-49 1.00748e-49 6.27713e-50 3.862e-50 2.34651e-50 1.40807e-50 8.34559e-51 4.88598e-51 2.82584e-51 1.61466e-51 9.11563e-52 5.08517e-52 2.80333e-52 1.52732e-52 8.22457e-53 4.37784e-53 2.3036e-53 1.19835e-53 6.16318e-54 3.13313e-54 1.5725e-54 7.74916e-55 3.65617e-55 1.44744e-55 0 
0 3.02085e-73 1.03513e-72 3.22637e-72 9.89456e-72 3.00781e-71 9.06933e-71 2.71258e-70 8.04736e-70 2.3679e-69 6.91017e-69 1.99989e-68 5.73974e-68 1.63351e-67 4.60967e-67 1.28977e-66 3.57784e-66 9.8395e-66 2.68251e-65 7.24937e-65 1.94188e-64 5.15563e-64 1.35659e-63 3.53751e-63 9.14114e-63 2.3406e-62 5.93813e-62 1.49259e-61 3.71678e-61 9.16854e-61 2.24033e-60 5.42211e-60 1.29969e-59 3.08529e-59 7.25275e-59 1.68822e-58 3.89083e-58 8.87787e-58 2.00537e-57 4.48402e-57 9.9241e-57 2.17386e-56 4.71252e-56 1.01093e-55 2.14585e-55 4.50661e-55 9.36351e-55 1.92454e-54 3.9127e-54 7.86774e-54 1.56463e-53 3.07693e-53 5.98321e-53 1.15032e-52 2.18644e-52 4.10813e-52 7.62962e-52 1.40047e-51 2.54047e-51 4.55394e-51 8.06588e-51 1.41146e-50 2.44005e-50 4.16679e-50 7.02811e-50 1.17077e-49 1.92603e-49 3.12877e-49 5.01845e-49 7.94719e-49 1.24243e-48 1.91739e-48 2.92079e-48 4.39144e-48 6.51637e-48 9.54264e-48 1.37903e-47 1.96651e-47 2.76708e-47 3.84179e-47 5.26286e-47 7.1134e-47 9.48635e-47 1.24821e-46 1.62052e-46 2.07593e-46 2.62411e-46 3.27335e-46 4.02978e-46 4.89662e-46 5.87344e-46 6.95569e-46 8.1343e-46 9.39566e-46 1.07219e-45 1.20915e-45 1.34801e-45 1.48619e-45 1.62108e-45 1.75019e-45 1.87127e-45 1.98243e-45 2.08221e-45 2.16964e-45 2.24428e-45 2.3061e-45 2.35553e-45 2.3933e-45 2.42037e-45 2.43785e-45 2.44689e-45 2.44861e-45 2.44405e-45 2.43416e-45 2.41977e-45 2.40164e-45 2.38045e-45 2.35685e-45 2.33152e-45 2.30515e-45 2.27846e-45 2.25226e-45 2.22733e-45 2.20447e-45 2.18443e-45 2.16787e-45 2.15531e-45 2.14708e-45 2.14332e-45 2.14397e-45 2.14875e-45 2.15719e-45 2.16867e-45 2.18246e-45 2.19777e-45 2.21383e-45 2.22987e-45 2.24524e-45 2.25938e-45 2.2719e-45 2.28251e-45 2.29112e-45 2.29774e-45 2.30251e-45 2.30567e-45 2.30754e-45 2.30848e-45 2.30888e-45 2.30913e-45 2.30962e-45 2.31068e-45 2.31264e-45 2.31576e-45 2.32023e-45 2.3262e-45 2.33377e-45 2.34297e-45 2.35376e-45 2.36607e-45 2.37977e-45 2.39469e-45 2.4106e-45 2.42724e-45 2.44433e-45 2.46153e-45 2.47849e-45 2.49484e-45 2.51018e-45 2.52412e-45 2.5363e-45 2.54636e-45 2.55399e-45 2.55894e-45 2.56103e-45 2.56015e-45 2.55628e-45 2.54946e-45 2.53979e-45 2.52743e-45 2.51256e-45 2.49533e-45 2.47588e-45 2.4543e-45 2.43059e-45 2.40466e-45 2.37635e-45 2.34537e-45 2.31134e-45 2.27381e-45 2.23226e-45 2.18615e-45 2.1349e-45 2.07798e-45 2.01493e-45 1.94536e-45 1.86907e-45 1.78604e-45 1.69644e-45 1.60072e-45 1.49958e-45 1.39396e-45 1.28505e-45 1.17421e-45 1.06293e-45 9.52787e-46 8.45329e-46 7.42025e-46 6.4419e-46 5.52926e-46 4.69079e-46 3.93222e-46 3.2564e-46 2.66355e-46 2.15144e-46 1.71584e-46 1.35098e-46 1.05004e-46 8.05575e-47 6.09993e-47 4.5587e-47 3.36234e-47 2.44747e-47 1.7582e-47 1.24651e-47 8.72185e-48 6.02304e-48 4.10519e-48 2.76172e-48 1.83389e-48 1.2021e-48 7.77868e-49 4.96932e-49 3.13431e-49 1.95198e-49 1.2004e-49 7.29e-50 4.37237e-50 2.59017e-50 1.51565e-50 8.76121e-51 5.00336e-51 2.82313e-51 1.57401e-51 8.67224e-52 4.72216e-52 2.54141e-52 1.35198e-52 7.10991e-53 3.69649e-53 1.90001e-53 9.6533e-54 4.84215e-54 2.38485e-54 1.12465e-54 4.45075e-55 0 
0 9.00062e-73 3.08496e-72 9.61842e-72 2.95071e-71 8.97275e-71 2.70645e-70 8.09764e-70 2.40317e-69 7.07378e-69 2.06509e-68 5.9789e-68 1.71662e-67 4.88738e-67 1.37975e-66 3.86207e-66 1.0718e-65 2.94883e-65 8.04282e-65 2.17451e-64 5.82747e-64 1.54789e-63 4.07484e-63 1.06309e-62 2.74841e-62 7.04084e-62 1.78717e-61 4.49447e-61 1.11978e-60 2.76373e-60 6.75679e-60 1.63619e-59 3.92417e-59 9.32068e-59 2.19231e-58 5.106e-58 1.17747e-57 2.68827e-57 6.07602e-57 1.35943e-56 3.01055e-56 6.59867e-56 1.43136e-55 3.07251e-55 6.526e-55 1.37144e-54 2.85132e-54 5.86431e-54 1.19303e-53 2.40054e-53 4.777e-53 9.40047e-53 1.82916e-52 3.51905e-52 6.6931e-52 1.2584e-51 2.33863e-51 4.2955e-51 7.79714e-51 1.39858e-50 2.47871e-50 4.34023e-50 7.50774e-50 1.28284e-49 2.16505e-49 3.6087e-49 5.93999e-49 9.6546e-49 1.54938e-48 2.45484e-48 3.83967e-48 5.92835e-48 9.03469e-48 1.35894e-47 2.01728e-47 2.95517e-47 4.27196e-47 6.09365e-47 8.57656e-47 1.19102e-46 1.63186e-46 2.20597e-46 2.94212e-46 3.87143e-46 5.02619e-46 6.43835e-46 8.13768e-46 1.01495e-45 1.24923e-45 1.51755e-45 1.8197e-45 2.15418e-45 2.51808e-45 2.90708e-45 3.31555e-45 3.73672e-45 4.16298e-45 4.58629e-45 4.99853e-45 5.39199e-45 5.75977e-45 6.0961e-45 6.3966e-45 6.65847e-45 6.88042e-45 7.06267e-45 7.20667e-45 7.3149e-45 7.39053e-45 7.43712e-45 7.45834e-45 7.45776e-45 7.43865e-45 7.40395e-45 7.35625e-45 7.29782e-45 7.23071e-45 7.15687e-45 7.07824e-45 6.99688e-45 6.91495e-45 6.83474e-45 6.75862e-45 6.68896e-45 6.62797e-45 6.57759e-45 6.53937e-45 6.51432e-45 6.50284e-45 6.50471e-45 6.51906e-45 6.54448e-45 6.57908e-45 6.62066e-45 6.66685e-45 6.71525e-45 6.76359e-45 6.80987e-45 6.85244e-45 6.89006e-45 6.92195e-45 6.94775e-45 6.96754e-45 6.98176e-45 6.99112e-45 6.99658e-45 6.99924e-45 7.00029e-45 7.0009e-45 7.00223e-45 7.00535e-45 7.01117e-45 7.02049e-45 7.03393e-45 7.05192e-45 7.07474e-45 7.10247e-45 7.13503e-45 7.17219e-45 7.21355e-45 7.25859e-45 7.30664e-45 7.35692e-45 7.40855e-45 7.46053e-45 7.5118e-45 7.56122e-45 7.60761e-45 7.64982e-45 7.68669e-45 7.71717e-45 7.74034e-45 7.75543e-45 7.76191e-45 7.75946e-45 7.74801e-45 7.72773e-45 7.69894e-45 7.66215e-45 7.61788e-45 7.56669e-45 7.50902e-45 7.44515e-45 7.37514e-45 7.29875e-45 7.21546e-45 7.12444e-45 7.02454e-45 6.91438e-45 6.79233e-45 6.65666e-45 6.50557e-45 6.33733e-45 6.15037e-45 5.94346e-45 5.7158e-45 5.46715e-45 5.19797e-45 4.90948e-45 4.60373e-45 4.28354e-45 3.95249e-45 3.61474e-45 3.27492e-45 2.93788e-45 2.60845e-45 2.29124e-45 1.99038e-45 1.70936e-45 1.45088e-45 1.21679e-45 1.00806e-45 8.24804e-46 6.66403e-46 5.31594e-46 4.18625e-46 3.2541e-46 2.49667e-46 1.89055e-46 1.41284e-46 1.04199e-46 7.58391e-47 5.44728e-47 3.86125e-47 2.70112e-47 1.86484e-47 1.27068e-47 8.54566e-48 5.67273e-48 3.71706e-48 2.40433e-48 1.53534e-48 9.67968e-49 6.02553e-49 3.70373e-49 2.24817e-49 1.34772e-49 7.97967e-50 4.66685e-50 2.6962e-50 1.5389e-50 8.67827e-51 4.83573e-51 2.66278e-51 1.44907e-51 7.79413e-52 4.14386e-52 2.17792e-52 1.13164e-52 5.81318e-53 2.95171e-53 1.47972e-53 7.28376e-54 3.43313e-54 1.35813e-54 0 
0 2.65983e-72 9.11894e-72 2.84404e-71 8.72777e-71 2.65491e-70 8.01079e-70 2.39767e-69 7.11824e-69 2.09605e-68 6.12145e-68 1.77299e-67 5.0925e-67 1.45047e-66 4.09647e-66 1.14713e-65 3.18487e-65 8.76638e-65 2.39206e-64 6.47027e-64 1.73477e-63 4.61007e-63 1.21419e-62 3.16926e-62 8.19764e-62 2.10112e-61 5.33602e-61 1.34264e-60 3.3469e-60 8.26501e-60 2.02175e-59 4.89852e-59 1.17551e-58 2.79367e-58 6.57483e-58 1.53222e-57 3.53548e-57 8.07676e-57 1.82663e-56 4.08939e-56 9.06197e-56 1.98751e-55 4.31403e-55 9.26632e-55 1.96945e-54 4.14155e-54 8.61628e-54 1.77329e-53 3.60999e-53 7.26871e-53 1.44743e-52 2.85026e-52 5.54987e-52 1.06844e-51 2.03351e-51 3.82588e-51 7.11484e-51 1.3077e-50 2.37529e-50 4.26337e-50 7.56091e-50 1.32477e-49 2.29304e-49 3.92053e-49 6.62068e-49 1.10419e-48 1.81857e-48 2.95749e-48 4.7488e-48 7.52793e-48 1.17805e-47 1.81975e-47 2.77452e-47 4.17503e-47 6.20009e-47 9.08603e-47 1.31391e-46 1.87475e-46 2.63933e-46 3.66605e-46 5.02393e-46 6.79236e-46 9.05994e-46 1.19223e-45 1.54784e-45 1.98264e-45 2.50568e-45 3.12466e-45 3.84513e-45 4.66975e-45 5.59767e-45 6.62399e-45 7.73947e-45 8.93048e-45 1.01794e-44 1.1465e-44 1.27638e-44 1.40508e-44 1.53011e-44 1.64908e-44 1.75991e-44 1.86083e-44 1.95056e-44 2.02828e-44 2.09364e-44 2.14678e-44 2.18822e-44 2.21876e-44 2.23944e-44 2.2514e-44 2.2558e-44 2.25377e-44 2.24634e-44 2.2344e-44 2.21875e-44 2.20007e-44 2.17897e-44 2.15603e-44 2.1318e-44 2.10688e-44 2.08191e-44 2.05754e-44 2.03448e-44 2.01341e-44 1.99498e-44 1.97978e-44 1.96824e-44 1.96068e-44 1.95719e-44 1.95772e-44 1.96199e-44 1.96959e-44 1.97994e-44 1.99238e-44 2.00619e-44 2.02066e-44 2.03511e-44 2.04893e-44 2.06164e-44 2.07286e-44 2.08236e-44 2.09003e-44 2.0959e-44 2.10009e-44 2.10284e-44 2.10442e-44 2.10516e-44 2.10543e-44 2.10557e-44 2.10593e-44 2.10683e-44 2.10854e-44 2.11131e-44 2.11531e-44 2.12069e-44 2.12751e-44 2.1358e-44 2.14555e-44 2.15667e-44 2.16906e-44 2.18255e-44 2.19695e-44 2.21202e-44 2.22749e-44 2.24307e-44 2.25844e-44 2.27327e-44 2.28719e-44 2.29985e-44 2.31093e-44 2.32009e-44 2.32707e-44 2.33164e-44 2.33363e-44 2.33296e-44 2.32961e-44 2.32363e-44 2.31514e-44 2.30428e-44 2.29123e-44 2.27616e-44 2.25922e-44 2.2405e-44 2.22002e-44 2.19774e-44 2.1735e-44 2.14704e-44 2.11803e-44 2.08604e-44 2.05057e-44 2.01108e-44 1.967e-44 1.91777e-44 1.86289e-44 1.80193e-44 1.73462e-44 1.66083e-44 1.58066e-44 1.49445e-44 1.40279e-44 1.3065e-44 1.20667e-44 1.10456e-44 1.00159e-44 8.99236e-45 7.99008e-45 7.02331e-45 6.10498e-45 5.24604e-45 4.45506e-45 3.73796e-45 3.09795e-45 2.53563e-45 2.04924e-45 1.63505e-45 1.28781e-45 1.00117e-45 7.68181e-46 5.81699e-46 4.34702e-46 3.20576e-46 2.33298e-46 1.67545e-46 1.1874e-46 8.3045e-47 5.73189e-47 3.90449e-47 2.62502e-47 1.74192e-47 1.14096e-47 7.37717e-48 4.70885e-48 2.96741e-48 1.84632e-48 1.13433e-48 6.88195e-49 4.1234e-49 2.44011e-49 1.4263e-49 8.23563e-50 4.69793e-50 2.64776e-50 1.47453e-50 8.11462e-51 4.4133e-51 2.37235e-51 1.26052e-51 6.62097e-52 3.43812e-52 1.76506e-52 8.95682e-53 4.48741e-53 2.20759e-53 1.03998e-53 4.11254e-54 0 
0 7.79558e-72 2.67335e-71 8.34041e-71 2.56037e-70 7.79112e-70 2.35169e-69 7.04129e-69 2.09121e-68 6.16015e-68 1.79975e-67 5.21477e-67 1.49843e-66 4.26966e-66 1.20636e-65 3.37962e-65 9.38723e-65 2.585e-64 7.05685e-64 1.90969e-63 5.12259e-63 1.36196e-62 3.58888e-62 9.3723e-62 2.42548e-61 6.21995e-61 1.58046e-60 3.97884e-60 9.92384e-60 2.452e-59 6.00137e-59 1.45491e-58 3.49341e-58 8.30724e-58 1.95626e-57 4.56169e-57 1.05323e-56 2.40759e-56 5.44843e-56 1.22055e-55 2.70645e-55 5.93979e-55 1.29012e-54 2.77297e-54 5.8976e-54 1.24104e-53 2.58368e-53 5.32105e-53 1.08398e-52 2.18411e-52 4.35227e-52 8.57642e-52 1.67111e-51 3.2194e-51 6.1316e-51 1.15441e-50 2.1483e-50 3.95125e-50 7.18192e-50 1.28994e-49 2.28919e-49 4.0136e-49 6.95162e-49 1.18932e-48 2.00968e-48 3.35377e-48 5.52686e-48 8.99337e-48 1.44486e-47 2.29167e-47 3.5881e-47 5.54532e-47 8.45874e-47 1.27341e-46 1.89184e-46 2.77349e-46 4.01205e-46 5.72639e-46 8.06399e-46 1.12036e-45 1.53562e-45 2.07647e-45 2.76998e-45 3.64531e-45 4.73267e-45 6.06181e-45 7.66024e-45 9.55109e-45 1.17508e-44 1.4267e-44 1.70963e-44 2.02228e-44 2.36173e-44 2.72374e-44 3.10279e-44 3.49236e-44 3.88516e-44 4.27351e-44 4.64977e-44 5.00672e-44 5.33799e-44 5.63834e-44 5.90393e-44 6.13243e-44 6.323e-44 6.47621e-44 6.59383e-44 6.67855e-44 6.73368e-44 6.76284e-44 6.76971e-44 6.75778e-44 6.73024e-44 6.68987e-44 6.63905e-44 6.57982e-44 6.51398e-44 6.44318e-44 6.36905e-44 6.2933e-44 6.21773e-44 6.14427e-44 6.07491e-44 6.01167e-44 5.95645e-44 5.91092e-44 5.87638e-44 5.8537e-44 5.84321e-44 5.84468e-44 5.8573e-44 5.87981e-44 5.9105e-44 5.9474e-44 5.98838e-44 6.03129e-44 6.07412e-44 6.11508e-44 6.1527e-44 6.18588e-44 6.21392e-44 6.23654e-44 6.25379e-44 6.26608e-44 6.27405e-44 6.27858e-44 6.28063e-44 6.28127e-44 6.28155e-44 6.28251e-44 6.28507e-44 6.29008e-44 6.29823e-44 6.31006e-44 6.32597e-44 6.3462e-44 6.37081e-44 6.39975e-44 6.43279e-44 6.46958e-44 6.50967e-44 6.55245e-44 6.59723e-44 6.64323e-44 6.68957e-44 6.73529e-44 6.77939e-44 6.82082e-44 6.85853e-44 6.89153e-44 6.91886e-44 6.93971e-44 6.9534e-44 6.95948e-44 6.95769e-44 6.94798e-44 6.93052e-44 6.90568e-44 6.87393e-44 6.83581e-44 6.79187e-44 6.74258e-44 6.68825e-44 6.629e-44 6.56467e-44 6.49485e-44 6.4188e-44 6.33549e-44 6.24363e-44 6.14171e-44 6.02802e-44 5.90079e-44 5.75825e-44 5.59877e-44 5.42095e-44 5.2238e-44 5.00682e-44 4.77018e-44 4.51477e-44 4.24225e-44 3.95507e-44 3.65644e-44 3.35016e-44 3.04054e-44 2.73211e-44 2.42947e-44 2.13705e-44 1.85883e-44 1.59824e-44 1.35798e-44 1.13992e-44 9.45127e-45 7.73836e-45 6.25573e-45 4.99245e-45 3.93284e-45 3.05782e-45 2.34638e-45 1.7768e-45 1.32776e-45 9.79094e-46 7.12447e-46 5.11568e-46 3.62478e-46 2.53453e-46 1.7489e-46 1.19097e-46 8.00433e-47 5.30959e-47 3.47644e-47 2.24685e-47 1.43354e-47 9.02967e-48 5.61557e-48 3.44834e-48 2.09101e-48 1.25218e-48 7.406e-49 4.32654e-49 2.49677e-49 1.42342e-49 8.01768e-50 4.46233e-50 2.45421e-50 1.33395e-50 7.16613e-51 3.80528e-51 1.99749e-51 1.0366e-51 5.31834e-52 2.6971e-52 1.35042e-52 6.63943e-53 3.12611e-53 1.23571e-53 0 