# vtk DataFile Version 3.0
Gray-Scott Simulation Output
ASCII
DATASET STRUCTURED_POINTS
DIMENSIONS 256 256 1
SPACING 1.0 1.0 1.0
ORIGIN 0 0 0
POINT_DATA 65536
SCALARS u double
LOOKUP_TABLE default
0 0 0 0 0 0 0 0 0 0 0 0 0 0 0 0 0 0 0 0 0 0 0 0 0 0 0 0 0 0 0 0 0 0 0 0 0 0 0 0 0 0 0 0 0 0 0 0 0 0 0 0 0 0 0 0 0 0 0 0 0 0 0 0 0 0 0 0 0 0 0 0 0 0 0 0 0 0 0 0 0 0 0 0 0 0 0 0 0 0 0 0 0 0 0 0 0 0 0 0 0 0 0 0 0 0 0 0 0 0 0 0 0 0 0 0 0 0 0 0 0 0 0 0 0 0 0 0 0 0 0 0 0 0 0 0 0 0 0 0 0 0 0 0 0 0 0 0 0 0 0 0 0 0 0 0 0 0 0 0 0 0 0 0 0 0 0 0 0 0 0 0 0 0 0 0 0 0 0 0 0 0 0 0 0 0 0 0 0 0 0 0 0 0 0 0 0 0 0 0 0 0 0 0 0 0 0 0 0 0 0 0 0 0 0 0 0 0 0 0 0 0 0 0 0 0 0 0 0 0 0 0 0 0 0 0 0 0 0 0 0 0 0 0 0 0 0 0 0 0 0 0 0 0 0 0 
0 2.46919e-238 1.13138e-236 5.11926e-235 2.28825e-233 1.0103e-231 4.40566e-230 1.89728e-228 8.06807e-227 3.38746e-225 1.4041e-223 5.74499e-222 2.32005e-220 9.24632e-219 3.63622e-217 1.41087e-215 5.40031e-214 2.03888e-212 7.59182e-211 2.78753e-209 1.00914e-207 3.60141e-206 1.26684e-204 4.39172e-203 1.50016e-201 5.04845e-200 1.67351e-198 5.46348e-197 1.75633e-195 5.55852e-194 1.7316e-192 5.30869e-191 1.60137e-189 4.75198e-188 1.38689e-186 3.98017e-185 1.12294e-183 3.1139e-182 8.48485e-181 2.27127e-179 5.97132e-178 1.54146e-176 3.90607e-175 9.7134e-174 2.36973e-172 5.67017e-171 1.33023e-169 3.05878e-168 6.89162e-167 1.52087e-165 3.28629e-164 6.95026e-163 1.43816e-161 2.9104e-160 5.75771e-159 1.11304e-157 2.10155e-156 3.87367e-155 6.96704e-154 1.22205e-152 2.08931e-151 3.47974e-150 5.64231e-149 8.90141e-148 1.36541e-146 2.03503e-145 2.94479e-144 4.1341e-143 5.62589e-142 7.41491e-141 9.45636e-140 1.16579e-138 1.38783e-137 1.59366e-136 1.76309e-135 1.87682e-134 1.91976e-133 1.88412e-132 1.77141e-131 1.59271e-130 1.36696e-129 1.11764e-128 8.68609e-128 6.40144e-127 4.4619e-126 2.93287e-125 1.81221e-124 1.04888e-123 5.66413e-123 2.84132e-122 1.3175e-121 5.616e-121 2.18712e-120 7.72852e-120 2.45918e-119 6.98827e-119 1.7583e-118 3.88456e-118 7.48436e-118 1.25334e-117 1.82848e-117 2.34445e-117 2.67652e-117 2.76169e-117 2.63261e-117 2.40082e-117 2.18403e-117 2.0431e-117 1.98744e-117 2.00796e-117 2.09454e-117 2.24212e-117 2.45324e-117 2.70894e-117 2.92204e-117 2.98779e-117 2.89942e-117 2.75313e-117 2.64014e-117 2.57814e-117 2.54286e-117 2.53196e-117 2.56299e-117 2.63863e-117 2.74699e-117 2.87888e-117 3.02624e-117 3.14806e-117 3.17704e-117 3.08668e-117 2.90739e-117 2.68358e-117 2.46338e-117 2.30505e-117 2.27083e-117 2.40539e-117 2.69622e-117 3.05025e-117 3.3085e-117 3.32664e-117 3.08964e-117 2.72767e-117 2.40269e-117 2.20164e-117 2.12986e-117 2.15677e-117 2.25086e-117 2.3977e-117 2.59414e-117 2.81149e-117 2.95978e-117 2.93893e-117 2.7569e-117 2.53343e-117 2.36367e-117 2.24173e-117 2.13485e-117 2.06501e-117 2.07637e-117 2.18072e-117 2.37922e-117 2.68102e-117 3.03314e-117 3.28782e-117 3.29391e-117 3.0163e-117 2.58013e-117 2.19202e-117 1.98429e-117 1.94312e-117 1.99027e-117 2.08424e-117 2.21038e-117 2.33641e-117 2.43494e-117 2.53081e-117 2.68175e-117 2.91599e-117 3.19717e-117 3.43293e-117 3.53073e-117 3.46128e-117 3.26897e-117 3.03016e-117 2.81983e-117 2.6898e-117 2.64692e-117 2.64509e-117 2.60378e-117 2.46839e-117 2.26706e-117 2.10653e-117 2.08598e-117 2.22128e-117 2.43917e-117 2.61408e-117 2.62956e-117 2.45144e-117 2.13273e-117 1.74694e-117 1.33852e-117 9.34906e-118 5.78908e-118 3.12808e-118 1.4703e-118 6.03961e-119 2.18585e-119 7.03407e-120 2.03075e-120 5.30344e-121 1.26226e-121 2.75615e-122 5.55363e-123 1.03808e-123 1.80833e-124 2.94788e-125 4.5137e-126 6.51308e-127 8.88329e-128 1.14835e-128 1.41044e-129 1.64967e-130 1.84117e-131 1.96458e-132 2.00762e-133 1.96803e-134 1.85338e-135 1.67914e-136 1.46541e-137 1.2334e-138 1.00233e-139 7.87307e-141 5.98316e-142 4.4033e-143 3.141e-144 2.17351e-145 1.46016e-146 9.53034e-148 6.0477e-149 3.73368e-150 2.24401e-151 1.31377e-152 7.49663e-154 4.17165e-155 2.26502e-156 1.20054e-157 6.21483e-159 3.14362e-160 1.55443e-161 7.51686e-163 3.55632e-164 1.64677e-165 7.46619e-167 3.31551e-168 1.44002e-169 0 
0 1.13129e-236 5.1734e-235 2.33626e-233 1.04223e-231 4.59267e-230 1.99883e-228 8.59118e-227 3.64625e-225 1.52795e-223 6.3211e-222 2.58134e-220 1.04044e-218 4.1386e-217 1.62443e-215 6.2908e-214 2.40331e-212 9.05638e-211 3.36575e-209 1.23348e-207 4.45695e-206 1.5876e-204 5.57406e-203 1.9287e-201 6.57584e-200 2.20881e-198 7.30829e-197 2.38148e-195 7.64142e-194 2.41391e-192 7.5059e-191 2.29688e-189 6.91579e-188 2.04844e-186 5.96749e-185 1.70944e-183 4.81407e-182 1.3325e-180 3.62423e-179 9.6839e-178 2.54134e-176 6.54845e-175 1.65638e-173 4.11157e-172 1.00128e-170 2.3915e-169 5.60045e-168 1.28549e-166 2.89113e-165 6.36891e-164 1.37375e-162 2.90024e-161 5.99064e-160 1.21018e-158 2.38993e-157 4.61196e-156 8.69265e-155 1.59948e-153 2.87175e-152 5.02842e-151 8.58212e-150 1.42688e-148 2.30966e-147 3.63751e-146 5.57013e-145 8.2876e-144 1.19722e-142 1.67788e-141 2.27948e-140 2.99928e-139 3.81859e-138 4.6997e-137 5.5855e-136 6.40318e-135 7.0722e-134 7.51597e-133 7.67527e-132 7.52044e-131 7.05904e-130 6.33664e-129 5.42972e-128 4.43228e-127 3.43919e-126 2.53059e-125 1.76109e-124 1.15579e-123 7.13061e-123 4.12082e-122 2.22198e-121 1.11298e-120 5.15334e-120 2.19359e-119 8.53119e-119 3.01068e-118 9.56801e-118 2.71583e-117 6.82617e-117 1.50675e-116 2.90097e-116 4.85555e-116 7.08154e-116 9.07868e-116 1.03645e-115 1.06952e-115 1.01968e-115 9.29996e-116 8.46017e-116 7.91358e-116 7.69745e-116 7.77692e-116 8.11278e-116 8.68523e-116 9.50341e-116 1.04931e-115 1.13172e-115 1.15719e-115 1.12312e-115 1.06659e-115 1.02286e-115 9.9881e-116 9.85129e-116 9.8091e-116 9.92909e-116 1.02218e-115 1.06415e-115 1.11526e-115 1.17231e-115 1.2194e-115 1.23057e-115 1.19558e-115 1.12616e-115 1.0395e-115 9.54256e-116 8.92995e-116 8.79786e-116 9.3188e-116 1.0444e-115 1.18131e-115 1.28112e-115 1.28808e-115 1.19641e-115 1.05639e-115 9.30599e-116 8.52698e-116 8.24822e-116 8.35195e-116 8.71654e-116 9.28596e-116 1.00473e-115 1.08887e-115 1.14621e-115 1.13817e-115 1.06784e-115 9.81402e-116 9.15606e-116 8.68294e-116 8.26913e-116 7.99941e-116 8.04403e-116 8.44885e-116 9.21855e-116 1.03873e-115 1.17493e-115 1.27335e-115 1.27561e-115 1.16819e-115 9.99446e-116 8.49195e-116 7.68594e-116 7.52436e-116 7.7059e-116 8.0698e-116 8.55851e-116 9.04701e-116 9.42951e-116 9.80187e-116 1.03871e-115 1.12942e-115 1.23826e-115 1.32949e-115 1.36735e-115 1.34053e-115 1.26615e-115 1.17377e-115 1.09239e-115 1.04205e-115 1.02538e-115 1.02455e-115 1.00846e-115 9.56042e-116 8.78181e-116 8.16103e-116 8.08131e-116 8.60432e-116 9.44676e-116 1.01229e-115 1.01825e-115 9.49328e-116 8.2597e-116 6.76593e-116 5.1844e-116 3.62181e-116 2.24365e-116 1.21316e-116 5.70731e-117 2.34689e-117 8.50382e-118 2.74001e-118 7.92102e-119 2.07151e-119 4.93742e-120 1.07967e-120 2.17879e-121 4.07877e-122 7.11612e-123 1.16185e-123 1.78178e-124 2.5751e-125 3.51782e-126 4.55479e-127 5.60338e-128 6.56442e-129 7.33841e-130 7.84313e-131 8.02815e-132 7.88281e-133 7.43592e-134 6.74807e-135 5.89897e-136 4.97335e-137 4.04844e-138 3.18531e-139 2.42479e-140 1.78755e-141 1.27728e-142 8.85363e-144 5.95804e-145 3.89543e-146 2.47619e-147 1.53137e-148 9.21976e-150 5.40711e-151 3.09078e-152 1.72293e-153 9.37107e-155 4.9757e-156 2.58029e-157 1.30748e-158 6.47652e-160 3.13743e-161 1.48699e-162 6.89782e-164 3.13292e-165 1.39372e-166 6.06413e-168 0 
0 5.11841e-235 2.33606e-233 1.05288e-231 4.68783e-230 2.06169e-228 8.95549e-227 3.84168e-225 1.62731e-223 6.80603e-222 2.8102e-220 1.14539e-218 4.60775e-217 1.82933e-215 7.1665e-214 2.77e-212 1.05622e-210 3.97259e-209 1.47359e-207 5.39015e-206 1.94395e-204 6.91143e-203 2.42204e-201 8.36484e-200 2.84661e-198 9.54383e-197 3.15187e-195 1.02515e-193 3.28328e-192 1.03526e-190 3.21311e-189 9.81427e-188 2.94958e-186 8.7205e-185 2.53578e-183 7.25066e-182 2.03818e-180 5.63123e-179 1.52883e-177 4.07761e-176 1.06815e-174 2.74739e-173 6.93678e-172 1.71879e-170 4.17819e-169 9.96153e-168 2.32863e-166 5.33545e-165 1.19783e-163 2.63403e-162 5.67144e-161 1.19523e-159 2.46447e-158 4.96978e-157 9.79733e-156 1.88732e-154 3.55102e-153 6.52262e-152 1.16906e-150 2.04346e-149 3.48159e-148 5.77857e-147 9.33757e-146 1.46806e-144 2.2442e-143 3.33336e-142 4.80715e-141 6.72571e-140 9.12173e-139 1.19819e-137 1.52294e-136 1.8712e-135 2.22018e-134 2.54097e-133 2.8018e-132 2.9727e-131 3.03072e-130 2.96472e-129 2.7783e-128 2.48994e-127 2.13013e-126 1.73605e-125 1.34493e-124 9.88048e-124 6.86527e-123 4.49864e-122 2.77115e-121 1.59904e-120 8.60924e-120 4.30598e-119 1.9909e-118 8.46262e-118 3.28676e-117 1.1584e-116 3.67687e-116 1.04247e-115 2.61751e-115 5.77254e-115 1.11061e-114 1.85797e-114 2.70893e-114 3.47246e-114 3.96425e-114 4.09107e-114 3.90094e-114 3.55825e-114 3.23692e-114 3.02752e-114 2.94463e-114 2.97503e-114 3.10372e-114 3.32303e-114 3.63621e-114 4.01454e-114 4.32935e-114 4.42683e-114 4.29703e-114 4.08133e-114 3.91416e-114 3.82201e-114 3.76961e-114 3.75348e-114 3.7993e-114 3.9112e-114 4.07179e-114 4.26738e-114 4.48549e-114 4.66532e-114 4.70785e-114 4.57402e-114 4.3085e-114 3.97706e-114 3.65116e-114 3.41704e-114 3.36667e-114 3.56587e-114 3.99588e-114 4.51881e-114 4.8998e-114 4.92617e-114 4.57597e-114 4.04098e-114 3.56006e-114 3.26192e-114 3.155e-114 3.1945e-114 3.33403e-114 3.55214e-114 3.84358e-114 4.16526e-114 4.3843e-114 4.35368e-114 4.0853e-114 3.75505e-114 3.50317e-114 3.32186e-114 3.16361e-114 3.06072e-114 3.07803e-114 3.23316e-114 3.52794e-114 3.97497e-114 4.49531e-114 4.87097e-114 4.87929e-114 4.46873e-114 3.82389e-114 3.24935e-114 2.94046e-114 2.87785e-114 2.94688e-114 3.08607e-114 3.2731e-114 3.46012e-114 3.60679e-114 3.74964e-114 3.97374e-114 4.32072e-114 4.7368e-114 5.08552e-114 5.23032e-114 5.12797e-114 4.84386e-114 4.49086e-114 4.17984e-114 3.98736e-114 3.92338e-114 3.91976e-114 3.85785e-114 3.65738e-114 3.35998e-114 3.12286e-114 3.09232e-114 3.292e-114 3.61372e-114 3.87191e-114 3.89457e-114 3.63113e-114 3.15954e-114 2.58827e-114 1.98338e-114 1.38585e-114 8.58875e-115 4.64715e-115 2.1882e-115 9.00748e-116 3.26764e-116 1.0542e-116 3.05162e-117 7.99172e-118 1.90754e-118 4.17737e-119 8.44254e-120 1.58287e-120 2.76583e-121 4.52279e-122 6.94687e-123 1.00558e-123 1.3759e-124 1.78433e-125 2.19866e-126 2.57992e-127 2.88881e-128 3.09255e-129 3.17071e-130 3.11844e-131 2.94653e-132 2.67841e-133 2.3453e-134 1.9806e-135 1.61497e-136 1.2728e-137 9.70546e-139 7.16698e-140 5.12983e-141 3.56187e-142 2.40106e-143 1.57253e-144 1.00132e-145 6.20324e-147 3.74118e-148 2.19789e-149 1.25853e-150 7.02777e-152 3.82911e-153 2.03667e-154 1.05803e-155 5.37065e-157 2.66501e-158 1.2933e-159 6.14045e-161 2.85348e-162 1.29833e-163 5.78609e-165 2.52203e-166 0 
0 2.28767e-233 1.04206e-231 4.68742e-230 2.08296e-228 9.14296e-227 3.96376e-225 1.69706e-223 7.17474e-222 2.99495e-220 1.23423e-218 5.02083e-217 2.01594e-215 7.98816e-214 3.12343e-212 1.20497e-210 4.5859e-209 1.72154e-207 6.37376e-206 2.32701e-204 8.37653e-203 2.97254e-201 1.03974e-199 3.58414e-198 1.21743e-196 4.07404e-195 1.34295e-193 4.35986e-192 1.39375e-190 4.38652e-189 1.35892e-187 4.14311e-186 1.24288e-184 3.66785e-183 1.0646e-181 3.03848e-180 8.52565e-179 2.35125e-177 6.37185e-176 1.69638e-174 4.4357e-173 1.13885e-171 2.87027e-170 7.09914e-169 1.72263e-167 4.0997e-166 9.56645e-165 2.188e-163 4.90343e-162 1.07635e-160 2.31345e-159 4.86686e-158 1.00174e-156 2.01654e-155 3.96841e-154 7.63125e-153 1.43333e-151 2.62819e-150 4.70237e-149 8.20532e-148 1.39559e-146 2.31234e-145 3.73009e-144 5.85443e-143 8.93429e-142 1.32477e-140 1.90726e-139 2.66394e-138 3.60686e-137 4.72985e-136 6.00171e-135 7.36186e-134 8.72028e-133 9.9637e-132 1.09683e-130 1.16182e-129 1.18256e-128 1.15492e-127 1.08054e-126 9.66824e-126 8.25787e-125 6.71936e-124 5.19728e-123 3.81216e-122 2.64467e-121 1.73031e-120 1.06423e-119 6.13165e-119 3.29637e-118 1.64629e-117 7.60079e-117 3.22632e-116 1.25136e-115 4.4046e-115 1.39635e-114 3.95441e-114 9.9189e-114 2.18554e-113 4.20193e-113 7.02596e-113 1.02409e-112 1.31257e-112 1.49845e-112 1.54652e-112 1.47485e-112 1.34543e-112 1.22392e-112 1.14465e-112 1.11322e-112 1.12472e-112 1.17344e-112 1.25648e-112 1.37495e-112 1.51787e-112 1.63672e-112 1.67358e-112 1.62473e-112 1.54338e-112 1.48023e-112 1.44534e-112 1.42551e-112 1.41941e-112 1.43671e-112 1.47897e-112 1.53969e-112 1.61367e-112 1.69608e-112 1.76394e-112 1.77994e-112 1.72935e-112 1.629e-112 1.50373e-112 1.38059e-112 1.29217e-112 1.27319e-112 1.34846e-112 1.51086e-112 1.70825e-112 1.85196e-112 1.86184e-112 1.72962e-112 1.52762e-112 1.34592e-112 1.23316e-112 1.19263e-112 1.20749e-112 1.26027e-112 1.34283e-112 1.45308e-112 1.57462e-112 1.6573e-112 1.64578e-112 1.54457e-112 1.41988e-112 1.32459e-112 1.25592e-112 1.19612e-112 1.15733e-112 1.16396e-112 1.22271e-112 1.33428e-112 1.50326e-112 1.69971e-112 1.84141e-112 1.84442e-112 1.68935e-112 1.44583e-112 1.22871e-112 1.11173e-112 1.08775e-112 1.1137e-112 1.16631e-112 1.23705e-112 1.30781e-112 1.36339e-112 1.41755e-112 1.50235e-112 1.63352e-112 1.79072e-112 1.92244e-112 1.97716e-112 1.93857e-112 1.83132e-112 1.69803e-112 1.58057e-112 1.50783e-112 1.48356e-112 1.48201e-112 1.45847e-112 1.38271e-112 1.27045e-112 1.18094e-112 1.16937e-112 1.24471e-112 1.36614e-112 1.46356e-112 1.47208e-112 1.37258e-112 1.1944e-112 9.78496e-113 7.49859e-113 5.24051e-113 3.24917e-113 1.75923e-113 8.29097e-114 3.41646e-114 1.24084e-114 4.0082e-115 1.16181e-115 3.04683e-116 7.28283e-117 1.59721e-117 3.2328e-118 6.07026e-119 1.06231e-119 1.73982e-120 2.67649e-121 3.8804e-122 5.31784e-123 6.90747e-124 8.52508e-125 1.00196e-125 1.12374e-126 1.20496e-127 1.23744e-128 1.21904e-129 1.15374e-130 1.0505e-131 9.2138e-133 7.79405e-134 6.36589e-135 5.02556e-136 3.83859e-137 2.83939e-138 2.03577e-139 1.41593e-140 9.5611e-142 6.27259e-143 4.00098e-144 2.48289e-145 1.50002e-146 8.82763e-148 5.06353e-149 2.83245e-150 1.54596e-151 8.23721e-153 4.28663e-154 2.17975e-155 1.08353e-156 5.26752e-158 2.50539e-159 1.16632e-160 5.31617e-162 2.3734e-163 1.03635e-164 0 
0 1.00996e-231 4.59149e-230 2.06133e-228 9.14216e-227 4.00507e-225 1.73296e-223 7.40518e-222 3.12469e-220 1.30182e-218 5.35454e-217 2.17404e-215 8.71239e-214 3.44569e-212 1.34472e-210 5.17787e-209 1.96686e-207 7.36957e-206 2.72332e-204 9.92388e-203 3.56556e-201 1.26292e-199 4.40916e-198 1.51706e-196 5.14339e-195 1.718e-193 5.65261e-192 1.8317e-190 5.84471e-189 1.83609e-187 5.67763e-186 1.72782e-184 5.17371e-183 1.52402e-181 4.41539e-180 1.2579e-178 3.52311e-177 9.69857e-176 2.62354e-174 6.97202e-173 1.81975e-171 4.66375e-170 1.1733e-168 2.89677e-167 7.01654e-166 1.66689e-164 3.88267e-163 8.86453e-162 1.98306e-160 4.34534e-159 9.3231e-158 1.95788e-156 4.02281e-155 8.08384e-154 1.58806e-152 3.04852e-151 5.71586e-150 1.04626e-148 1.86873e-147 3.25518e-146 5.52699e-145 9.14191e-144 1.47218e-142 2.30666e-141 3.51413e-140 5.20189e-139 7.4764e-138 1.04249e-136 1.40912e-135 1.84474e-134 2.33688e-133 2.86171e-132 3.38412e-131 3.86026e-130 4.24249e-129 4.48648e-128 4.55908e-127 4.44529e-126 4.15227e-125 3.7093e-124 3.16312e-123 2.56971e-122 1.98447e-121 1.45331e-120 1.00666e-119 6.576e-119 4.03843e-118 2.32326e-117 1.24712e-116 6.21936e-116 2.86732e-115 1.2154e-114 4.70769e-114 1.65489e-113 5.23992e-113 1.48225e-112 3.71414e-112 8.17659e-112 1.57093e-111 2.62542e-111 3.82561e-111 4.90266e-111 5.59693e-111 5.77694e-111 5.50997e-111 5.02701e-111 4.57301e-111 4.27642e-111 4.15871e-111 4.20164e-111 4.38395e-111 4.6946e-111 5.13743e-111 5.67098e-111 6.11432e-111 6.25209e-111 6.07039e-111 5.76727e-111 5.53152e-111 5.40101e-111 5.32683e-111 5.30405e-111 5.36855e-111 5.52633e-111 5.75318e-111 6.02964e-111 6.33735e-111 6.59037e-111 6.64984e-111 6.46091e-111 6.08609e-111 5.61826e-111 5.15851e-111 4.82852e-111 4.75784e-111 5.0389e-111 5.64491e-111 6.38116e-111 6.91687e-111 6.95338e-111 6.46014e-111 5.70644e-111 5.02809e-111 4.60669e-111 4.45489e-111 4.51014e-111 4.7074e-111 5.01618e-111 5.42831e-111 5.88208e-111 6.19048e-111 6.14766e-111 5.77048e-111 5.3053e-111 4.94908e-111 4.69212e-111 4.46878e-111 4.32429e-111 4.34939e-111 4.56922e-111 4.98649e-111 5.61767e-111 6.35059e-111 6.87876e-111 6.88949e-111 6.31069e-111 5.40194e-111 4.59118e-111 4.15337e-111 4.06267e-111 4.15902e-111 4.35554e-111 4.61992e-111 4.8845e-111 5.09262e-111 5.29552e-111 5.61267e-111 6.1026e-111 6.68947e-111 7.18114e-111 7.38551e-111 7.24173e-111 6.84167e-111 6.3443e-111 5.90594e-111 5.63433e-111 5.54335e-111 5.53694e-111 5.4485e-111 5.16556e-111 4.74678e-111 4.41293e-111 4.36965e-111 4.65054e-111 5.10337e-111 5.46665e-111 5.4983e-111 5.1269e-111 4.46172e-111 3.65539e-111 2.80143e-111 1.9582e-111 1.21462e-111 6.58081e-112 3.10416e-112 1.28047e-112 4.656e-113 1.50589e-113 4.37075e-114 1.1478e-114 2.74749e-115 6.03435e-116 1.22318e-116 2.30024e-117 4.03163e-118 6.61306e-119 1.01892e-119 1.47956e-120 2.03085e-121 2.64213e-122 3.26609e-123 3.84485e-124 4.31917e-125 4.63887e-126 4.7717e-127 4.70849e-128 4.46362e-129 4.07091e-130 3.57648e-131 3.03042e-132 2.47927e-133 1.96055e-134 1.50001e-135 1.11143e-136 7.98216e-138 5.56123e-139 3.76162e-140 2.47204e-141 1.57949e-142 9.81868e-144 5.94207e-145 3.50296e-146 2.01277e-147 1.12786e-148 6.16661e-150 3.29143e-151 1.71585e-152 8.74036e-154 4.35238e-155 2.1196e-156 1.00992e-157 4.70976e-159 2.15054e-160 9.61814e-162 4.20723e-163 0 
0 4.40376e-230 1.99814e-228 8.95311e-227 3.96305e-225 1.7328e-223 7.48316e-222 3.19149e-220 1.34409e-218 5.58903e-217 2.29442e-215 9.29793e-214 3.71899e-212 1.46803e-210 5.71827e-209 2.19764e-207 8.33213e-206 3.11604e-204 1.14931e-202 4.18026e-201 1.49911e-199 5.29986e-198 1.84685e-196 6.34261e-195 2.14637e-193 7.15597e-192 2.35011e-190 7.60133e-189 2.421e-187 7.59144e-186 2.34313e-184 7.11755e-183 2.12734e-181 6.25504e-180 1.80891e-178 5.14403e-177 1.43811e-175 3.95172e-174 1.06704e-172 2.83052e-171 7.37458e-170 1.8866e-168 4.73777e-167 1.16762e-165 2.82315e-164 6.69489e-163 1.55666e-161 3.54772e-160 7.92248e-159 1.73293e-157 3.71152e-156 7.78061e-155 1.59586e-153 3.20129e-152 6.27792e-151 1.20304e-149 2.25175e-148 4.11458e-147 7.33637e-146 1.27574e-144 2.16236e-143 3.57052e-142 5.73999e-141 8.97829e-140 1.36549e-138 2.01789e-137 2.8953e-136 4.03035e-135 5.43859e-134 7.108e-133 8.98925e-132 1.09898e-130 1.29745e-129 1.47755e-128 1.62118e-127 1.71161e-126 1.73647e-125 1.69038e-124 1.57641e-123 1.40597e-122 1.19703e-121 9.70922e-121 7.48617e-120 5.47383e-119 3.78565e-118 2.46918e-117 1.51405e-116 8.69708e-116 4.66168e-115 2.32137e-114 1.0687e-113 4.52371e-113 1.74984e-112 6.1433e-112 1.94279e-111 5.48949e-111 1.37413e-110 3.02248e-110 5.8029e-110 9.69327e-110 1.41204e-109 1.80935e-109 2.06556e-109 2.13218e-109 2.03392e-109 1.85584e-109 1.68823e-109 1.57859e-109 1.53503e-109 1.55087e-109 1.61826e-109 1.73309e-109 1.89664e-109 2.09343e-109 2.25684e-109 2.30772e-109 2.24095e-109 2.12935e-109 2.0424e-109 1.99416e-109 1.96675e-109 1.95834e-109 1.98211e-109 2.0403e-109 2.12404e-109 2.22612e-109 2.33963e-109 2.43285e-109 2.45469e-109 2.38496e-109 2.24665e-109 2.07403e-109 1.90442e-109 1.78274e-109 1.75674e-109 1.86043e-109 2.08387e-109 2.3552e-109 2.5525e-109 2.56584e-109 2.38402e-109 2.10617e-109 1.85595e-109 1.70035e-109 1.64417e-109 1.66447e-109 1.73731e-109 1.85142e-109 2.00363e-109 2.17103e-109 2.28469e-109 2.26896e-109 2.13008e-109 1.95861e-109 1.82704e-109 1.73203e-109 1.64962e-109 1.59643e-109 1.60582e-109 1.6871e-109 1.84129e-109 2.07423e-109 2.3444e-109 2.53892e-109 2.54269e-109 2.32923e-109 1.99416e-109 1.69501e-109 1.53313e-109 1.49923e-109 1.53458e-109 1.60711e-109 1.70475e-109 1.8025e-109 1.8795e-109 1.95461e-109 2.07179e-109 2.2526e-109 2.46908e-109 2.65041e-109 2.72582e-109 2.67289e-109 2.52545e-109 2.34209e-109 2.18045e-109 2.08024e-109 2.04654e-109 2.04394e-109 2.01111e-109 1.9067e-109 1.75236e-109 1.62931e-109 1.61331e-109 1.71678e-109 1.88365e-109 2.01749e-109 2.02911e-109 1.89214e-109 1.64678e-109 1.34924e-109 1.03409e-109 7.22968e-110 4.48627e-110 2.43229e-110 1.14831e-110 4.74171e-111 1.72617e-111 5.58993e-112 1.62459e-112 4.27218e-113 1.02408e-113 2.25247e-114 4.57259e-115 8.61184e-116 1.5117e-116 2.48345e-117 3.83237e-118 5.57365e-119 7.6625e-120 9.98471e-121 1.23624e-121 1.45765e-122 1.64011e-123 1.76438e-124 1.81786e-125 1.79671e-126 1.70608e-127 1.55854e-128 1.37152e-129 1.16405e-130 9.5393e-132 7.55608e-133 5.79085e-134 4.29794e-135 3.09194e-136 2.15783e-137 1.46203e-138 9.62447e-140 6.16e-141 3.83583e-142 2.32536e-143 1.3732e-144 7.90392e-146 4.43665e-147 2.42996e-148 1.29925e-149 6.78488e-151 3.46218e-152 1.72706e-153 8.42552e-155 4.02156e-156 1.87876e-157 8.59383e-159 3.85034e-160 1.68722e-161 0 
0 1.89629e-228 8.58738e-227 3.8403e-225 1.69659e-223 7.40382e-222 3.19119e-220 1.35839e-218 5.70981e-217 2.36972e-215 9.7096e-214 3.92721e-212 1.56781e-210 6.177e-209 2.40149e-207 9.21191e-206 3.48599e-204 1.30123e-202 4.79039e-201 1.73907e-199 6.22491e-198 2.1966e-196 7.64023e-195 2.61898e-193 8.84627e-192 2.94386e-190 9.65012e-189 3.11552e-187 9.90453e-186 3.10001e-184 9.55078e-183 2.89585e-181 8.63948e-180 2.53564e-178 7.31951e-177 2.07768e-175 5.79804e-174 1.59033e-172 4.28643e-171 1.13501e-169 2.95182e-168 7.53793e-167 1.8896e-165 4.64857e-164 1.12196e-162 2.65593e-161 6.16448e-160 1.40243e-158 3.12627e-157 6.82623e-156 1.45945e-154 3.05413e-153 6.25331e-152 1.25222e-150 2.45141e-149 4.68949e-148 8.76216e-147 1.59833e-145 2.84494e-144 4.93863e-143 8.35655e-142 1.37749e-140 2.21068e-139 3.45199e-138 5.24118e-137 7.73217e-136 1.10756e-134 1.53916e-133 2.07348e-132 2.70542e-131 3.41576e-130 4.169e-129 4.91377e-128 5.58666e-127 6.11969e-126 6.45048e-125 6.53354e-124 6.34982e-123 5.91214e-122 5.26449e-121 4.47501e-120 3.62396e-119 2.78981e-118 2.03671e-117 1.40639e-116 9.15903e-116 5.60763e-115 3.21632e-114 1.72142e-113 8.55971e-113 3.93507e-112 1.66337e-111 6.42558e-111 2.25298e-110 7.1163e-110 2.00849e-109 5.02258e-109 1.10379e-108 2.11771e-108 3.53571e-108 5.14903e-108 6.59704e-108 7.53117e-108 7.7747e-108 7.41744e-108 6.76874e-108 6.15737e-108 5.75698e-108 5.59768e-108 5.65542e-108 5.90154e-108 6.32087e-108 6.9176e-108 7.63471e-108 8.22976e-108 8.41537e-108 8.17302e-108 7.76708e-108 7.45028e-108 7.27414e-108 7.17408e-108 7.1434e-108 7.22992e-108 7.44193e-108 7.74731e-108 8.1197e-108 8.53339e-108 8.87264e-108 8.95188e-108 8.69768e-108 8.19346e-108 7.56416e-108 6.94604e-108 6.50276e-108 6.40823e-108 6.78614e-108 7.60004e-108 8.58791e-108 9.30578e-108 9.35392e-108 8.6918e-108 7.67989e-108 6.76801e-108 6.20039e-108 5.99503e-108 6.0687e-108 6.33444e-108 6.75105e-108 7.30643e-108 7.91647e-108 8.3303e-108 8.27323e-108 7.76805e-108 7.14361e-108 6.66352e-108 6.31648e-108 6.01606e-108 5.82265e-108 5.8573e-108 6.1542e-108 6.7171e-108 7.56645e-108 8.55033e-108 9.25804e-108 9.27109e-108 8.49335e-108 7.27277e-108 6.18233e-108 5.59096e-108 5.46583e-108 5.59398e-108 5.85845e-108 6.21468e-108 6.57147e-108 6.85295e-108 7.12761e-108 7.55534e-108 8.21463e-108 9.00352e-108 9.66419e-108 9.93911e-108 9.74664e-108 9.20978e-108 8.54195e-108 7.95312e-108 7.58785e-108 7.46454e-108 7.45417e-108 7.33376e-108 6.95315e-108 6.39115e-108 5.94314e-108 5.88469e-108 6.26126e-108 6.86872e-108 7.35589e-108 7.39801e-108 6.89901e-108 6.00484e-108 4.92015e-108 3.77116e-108 2.63704e-108 1.63706e-108 8.88142e-109 4.19669e-109 1.73472e-109 6.32237e-110 2.04996e-110 5.96558e-111 1.57092e-111 3.77097e-112 8.30626e-113 1.68868e-113 3.18516e-114 5.59962e-115 9.2133e-116 1.42397e-116 2.0742e-117 2.85604e-118 3.7275e-119 4.62251e-120 5.45912e-121 6.15239e-122 6.62923e-123 6.84129e-124 6.77277e-125 6.44165e-126 5.89431e-127 5.19557e-128 4.41695e-129 3.62568e-130 2.8767e-131 2.20834e-132 1.64177e-133 1.18308e-134 8.27055e-136 5.61321e-137 3.70142e-138 2.37307e-139 1.48024e-140 8.98887e-142 5.31735e-143 3.06585e-144 1.7239e-145 9.45816e-147 5.06585e-148 2.65007e-149 1.35464e-150 6.76922e-152 3.30817e-153 1.58179e-154 7.40265e-156 3.3921e-157 1.52247e-158 6.68326e-160 0 
0 8.06306e-227 3.64429e-225 1.62658e-223 7.1721e-222 3.12381e-220 1.34383e-218 5.70926e-217 2.39521e-215 9.92171e-214 4.05751e-212 1.638e-210 6.52674e-209 2.56658e-207 9.95944e-206 3.81313e-204 1.44025e-202 5.36594e-201 1.97173e-199 7.14461e-198 2.55258e-196 8.99055e-195 3.12127e-193 1.06795e-191 3.60056e-190 1.19598e-188 3.91322e-187 1.26105e-185 4.0016e-184 1.25016e-182 3.84454e-181 1.16355e-179 3.46502e-178 1.01511e-176 2.92495e-175 8.28757e-174 2.30857e-172 6.32069e-171 1.70055e-169 4.49483e-168 1.16687e-166 2.97446e-165 7.44301e-164 1.82778e-162 4.40363e-161 1.04058e-159 2.41096e-158 5.47529e-157 1.21839e-155 2.65568e-154 5.6679e-153 1.18402e-151 2.42005e-150 4.83769e-149 9.45406e-148 1.80541e-146 3.36752e-145 6.1322e-144 1.08962e-142 1.88827e-141 3.18963e-140 5.2488e-139 8.40929e-138 1.31089e-136 1.98696e-135 2.92636e-134 4.18468e-133 5.80566e-132 7.80803e-131 1.01707e-129 1.28199e-128 1.5621e-127 1.83812e-126 2.0864e-125 2.28173e-124 2.40115e-123 2.42812e-122 2.35603e-121 2.19011e-120 1.94708e-119 1.65246e-118 1.33608e-117 1.02694e-116 7.48549e-116 5.1609e-115 3.35588e-114 2.05153e-113 1.17492e-112 6.27909e-112 3.11775e-111 1.43126e-110 6.04167e-110 2.33077e-109 8.16184e-109 2.5749e-108 7.25922e-108 1.81347e-107 3.98191e-107 7.63438e-107 1.27401e-106 1.85479e-106 2.3761e-106 2.71254e-106 2.80049e-106 2.67217e-106 2.43873e-106 2.21845e-106 2.074e-106 2.01645e-106 2.03724e-106 2.12603e-106 2.2773e-106 2.49237e-106 2.75051e-106 2.96456e-106 3.03146e-106 2.94456e-106 2.7987e-106 2.68468e-106 2.62115e-106 2.58507e-106 2.57401e-106 2.60512e-106 2.68143e-106 2.79144e-106 2.92563e-106 3.07456e-106 3.19653e-106 3.22492e-106 3.13337e-106 2.95179e-106 2.72518e-106 2.50264e-106 2.34313e-106 2.30918e-106 2.44523e-106 2.73809e-106 3.09338e-106 3.3514e-106 3.36855e-106 3.13036e-106 2.76631e-106 2.43805e-106 2.23351e-106 2.15935e-106 2.18576e-106 2.28153e-106 2.43178e-106 2.63195e-106 2.85157e-106 3.00041e-106 2.97995e-106 2.79843e-106 2.5738e-106 2.40076e-106 2.27553e-106 2.16734e-106 2.09786e-106 2.1105e-106 2.21763e-106 2.42063e-106 2.72654e-106 3.08049e-106 3.33485e-106 3.3393e-106 3.05937e-106 2.62014e-106 2.22749e-106 2.01408e-106 1.96846e-106 2.01435e-106 2.10961e-106 2.23801e-106 2.36666e-106 2.46831e-106 2.56753e-106 2.72176e-106 2.95922e-106 3.24322e-106 3.48101e-106 3.58001e-106 3.51087e-106 3.31778e-106 3.0775e-106 2.86561e-106 2.73409e-106 2.68951e-106 2.68546e-106 2.64184e-106 2.50477e-106 2.30262e-106 2.14148e-106 2.12039e-106 2.25577e-106 2.47422e-106 2.64939e-106 2.66449e-106 2.48489e-106 2.163e-106 1.77238e-106 1.35856e-106 9.50171e-107 5.90108e-107 3.20358e-107 1.51509e-107 6.26913e-108 2.28748e-108 7.4261e-109 2.16391e-109 5.70601e-110 1.37165e-110 3.02566e-111 6.16029e-112 1.16368e-112 2.04888e-113 3.37627e-114 5.22628e-115 7.62464e-116 1.05151e-116 1.37453e-117 1.70728e-118 2.01949e-119 2.27961e-120 2.46027e-121 2.54308e-122 2.52172e-123 2.40236e-124 2.20184e-125 1.94402e-126 1.65542e-127 1.36112e-128 1.08174e-129 8.31804e-131 6.19434e-132 4.47123e-133 3.13096e-134 2.12857e-135 1.40598e-136 9.02946e-138 5.64186e-139 3.43192e-140 2.03362e-141 1.17455e-142 6.61578e-144 3.63601e-145 1.95084e-146 1.02231e-147 5.2348e-149 2.62043e-150 1.28286e-151 6.1447e-153 2.88073e-154 1.32235e-155 5.94556e-157 2.61455e-158 0 