# vtk DataFile Version 3.0
Gray-Scott Simulation Output
ASCII
DATASET STRUCTURED_POINTS
DIMENSIONS 256 256 1
SPACING 1.0 1.0 1.0
ORIGIN 0 0 0
POINT_DATA 65536
SCALARS u double
LOOKUP_TABLE default
0 0 0 0 0 0 0 0 0 0 0 0 0 0 0 0 0 0 0 0 0 0 0 0 0 0 0 0 0 0 0 0 0 0 0 0 0 0 0 0 0 0 0 0 0 0 0 0 0 0 0 0 0 0 0 0 0 0 0 0 0 0 0 0 0 0 0 0 0 0 0 0 0 0 0 0 0 0 0 0 0 0 0 0 0 0 0 0 0 0 0 0 0 0 0 0 0 0 0 0 0 0 0 0 0 0 0 0 0 0 0 0 0 0 0 0 0 0 0 0 0 0 0 0 0 0 0 0 0 0 0 0 0 0 0 0 0 0 0 0 0 0 0 0 0 0 0 0 0 0 0 0 0 0 0 0 0 0 0 0 0 0 0 0 0 0 0 0 0 0 0 0 0 0 0 0 0 0 0 0 0 0 0 0 0 0 0 0 0 0 0 0 0 0 0 0 0 0 0 0 0 0 0 0 0 0 0 0 0 0 0 0 0 0 0 0 0 0 0 0 0 0 0 0 0 0 0 0 0 0 0 0 0 0 0 0 0 0 0 0 0 0 0 0 0 0 0 0 0 0 0 0 0 0 0 0 
0 1.33231e-91 6.46416e-91 2.97916e-90 1.35783e-89 6.13057e-89 2.74199e-88 1.2148e-87 5.33076e-87 2.31675e-86 9.97106e-86 4.24952e-85 1.79324e-84 7.49203e-84 3.09875e-83 1.2687e-82 5.14142e-82 2.06212e-81 8.18495e-81 3.21474e-80 1.24929e-79 4.80313e-79 1.82679e-78 6.87246e-78 2.55712e-77 9.40937e-77 3.42369e-76 1.2317e-75 4.38077e-75 1.5402e-74 5.35228e-74 1.83817e-73 6.23833e-73 2.09187e-72 6.92998e-72 2.26782e-71 7.33011e-71 2.33982e-70 7.37513e-70 2.29517e-69 7.05118e-69 2.13821e-68 6.39917e-68 1.88982e-67 5.50652e-67 1.58283e-66 4.48775e-66 1.25486e-65 3.45995e-65 9.40556e-65 2.52043e-64 6.65688e-64 1.73262e-63 4.4433e-63 1.12254e-62 2.79336e-62 6.84548e-62 1.65181e-61 3.92395e-61 9.17523e-61 2.11138e-60 4.78076e-60 1.06495e-59 2.33341e-59 5.02809e-59 1.06534e-58 2.21905e-58 4.54326e-58 9.14132e-58 1.80724e-57 3.51007e-57 6.69623e-57 1.25455e-56 2.3079e-56 4.1682e-56 7.38948e-56 1.28573e-55 2.19529e-55 3.67777e-55 6.0447e-55 9.7457e-55 1.54119e-54 2.3904e-54 3.636e-54 5.42373e-54 7.93381e-54 1.13809e-53 1.60101e-53 2.20882e-53 2.98894e-53 3.96759e-53 5.16732e-53 6.60441e-53 8.28624e-53 1.02091e-52 1.23566e-52 1.46997e-52 1.7197e-52 1.97976e-52 2.24439e-52 2.5076e-52 2.76357e-52 3.00711e-52 3.2339e-52 3.44078e-52 3.62574e-52 3.78793e-52 3.9274e-52 4.04486e-52 4.14143e-52 4.21828e-52 4.27647e-52 4.31674e-52 4.33955e-52 4.34506e-52 4.3334e-52 4.30479e-52 4.2599e-52 4.20004e-52 4.12738e-52 4.04501e-52 3.9569e-52 3.86773e-52 3.78257e-52 3.70647e-52 3.64401e-52 3.59887e-52 3.57352e-52 3.56897e-52 3.58468e-52 3.61876e-52 3.66811e-52 3.72882e-52 3.79658e-52 3.86705e-52 3.93622e-52 4.00068e-52 4.05781e-52 4.10584e-52 4.14381e-52 4.17158e-52 4.18959e-52 4.19885e-52 4.20067e-52 4.19662e-52 4.18836e-52 4.17755e-52 4.16578e-52 4.15451e-52 4.14503e-52 4.13845e-52 4.13569e-52 4.13749e-52 4.14438e-52 4.15671e-52 4.17462e-52 4.19807e-52 4.22682e-52 4.26046e-52 4.29844e-52 4.3401e-52 4.38472e-52 4.43159e-52 4.47998e-52 4.52918e-52 4.57844e-52 4.62693e-52 4.67368e-52 4.71751e-52 4.75705e-52 4.79076e-52 4.81705e-52 4.83444e-52 4.84173e-52 4.83818e-52 4.82363e-52 4.79854e-52 4.76391e-52 4.72115e-52 4.67184e-52 4.61741e-52 4.55892e-52 4.49681e-52 4.43082e-52 4.35997e-52 4.28269e-52 4.19702e-52 4.10087e-52 3.99232e-52 3.86979e-52 3.73228e-52 3.57945e-52 3.41161e-52 3.2297e-52 3.03521e-52 2.83006e-52 2.61653e-52 2.39721e-52 2.17488e-52 1.95251e-52 1.73318e-52 1.51996e-52 1.31586e-52 1.12363e-52 9.45669e-53 7.83862e-53 6.39486e-53 5.13155e-53 4.04814e-53 3.13794e-53 2.38913e-53 1.78605e-53 1.31064e-53 9.43864e-54 6.66958e-54 4.62376e-54 3.14458e-54 2.09787e-54 1.3729e-54 8.81343e-55 5.55029e-55 3.42907e-55 2.07855e-55 1.23626e-55 7.21562e-56 4.13334e-56 2.32408e-56 1.28287e-56 6.95287e-57 3.70049e-57 1.93437e-57 9.93284e-58 5.01113e-58 2.48427e-58 1.21043e-58 5.79738e-59 2.72993e-59 1.26408e-59 5.75677e-60 2.57892e-60 1.13666e-60 4.92978e-61 2.1043e-61 8.84191e-62 3.65776e-62 1.49e-62 5.97774e-63 2.3623e-63 9.19712e-64 3.52823e-64 1.33387e-64 4.96958e-65 1.82266e-65 6.51471e-66 2.07312e-66 0 
0 6.45344e-91 3.13114e-90 1.44308e-89 6.57727e-89 2.96968e-88 1.32826e-87 5.88485e-87 2.58244e-86 1.12236e-85 4.83071e-85 2.05886e-84 8.68847e-84 3.63015e-83 1.50153e-82 6.14796e-82 2.4916e-81 9.99396e-81 3.96705e-80 1.55822e-79 6.05588e-79 2.32849e-78 8.85675e-78 3.33224e-77 1.23998e-76 4.56318e-76 1.66053e-75 5.97454e-75 2.12518e-74 7.47264e-74 2.5971e-73 8.92053e-73 3.02782e-72 1.01544e-71 3.36445e-71 1.10117e-70 3.55977e-70 1.13648e-69 3.58278e-69 1.11516e-68 3.42658e-68 1.03927e-67 3.11085e-67 9.18877e-67 2.67793e-66 7.69915e-66 2.18336e-65 6.10636e-65 1.68403e-64 4.57888e-64 1.22729e-63 3.2422e-63 8.44063e-63 2.1651e-62 5.47118e-62 1.36179e-61 3.33807e-61 8.05676e-61 1.9144e-60 4.47753e-60 1.03062e-59 2.33423e-59 5.20106e-59 1.1399e-58 2.45693e-58 5.20706e-58 1.0849e-57 2.22178e-57 4.47154e-57 8.84256e-57 1.71786e-56 3.27803e-56 6.14299e-56 1.13036e-55 2.04197e-55 3.6209e-55 6.30156e-55 1.07618e-54 1.8033e-54 2.96445e-54 4.78038e-54 7.56104e-54 1.17291e-53 1.78436e-53 2.66204e-53 3.89447e-53 5.5871e-53 7.8603e-53 1.08451e-52 1.46761e-52 1.94819e-52 2.53731e-52 3.24292e-52 4.0686e-52 5.01245e-52 6.0664e-52 7.21603e-52 8.44102e-52 9.71623e-52 1.10134e-51 1.2303e-51 1.35566e-51 1.47486e-51 1.5858e-51 1.68694e-51 1.7773e-51 1.85648e-51 1.92451e-51 1.98176e-51 2.0288e-51 2.0662e-51 2.09449e-51 2.11406e-51 2.1251e-51 2.12773e-51 2.12198e-51 2.10797e-51 2.08602e-51 2.05678e-51 2.02129e-51 1.98105e-51 1.93802e-51 1.89447e-51 1.85289e-51 1.81572e-51 1.78522e-51 1.76319e-51 1.75082e-51 1.74861e-51 1.7563e-51 1.77296e-51 1.79708e-51 1.82674e-51 1.85984e-51 1.89426e-51 1.92804e-51 1.95951e-51 1.9874e-51 2.01083e-51 2.02936e-51 2.0429e-51 2.05168e-51 2.05618e-51 2.05705e-51 2.05506e-51 2.05102e-51 2.04574e-51 2.03999e-51 2.03448e-51 2.02984e-51 2.02663e-51 2.02528e-51 2.02615e-51 2.0295e-51 2.0355e-51 2.04424e-51 2.05567e-51 2.06969e-51 2.08609e-51 2.10461e-51 2.12492e-51 2.14669e-51 2.16955e-51 2.19316e-51 2.21716e-51 2.2412e-51 2.26486e-51 2.28768e-51 2.30908e-51 2.32839e-51 2.34485e-51 2.3577e-51 2.3662e-51 2.36977e-51 2.36805e-51 2.36096e-51 2.34871e-51 2.33181e-51 2.31095e-51 2.28689e-51 2.26033e-51 2.2318e-51 2.20151e-51 2.16933e-51 2.1348e-51 2.09713e-51 2.05537e-51 2.00851e-51 1.95559e-51 1.89584e-51 1.82877e-51 1.75421e-51 1.67229e-51 1.58347e-51 1.48847e-51 1.38821e-51 1.28381e-51 1.17652e-51 1.06769e-51 9.58784e-52 8.51299e-52 7.46756e-52 6.46628e-52 5.52281e-52 4.64898e-52 3.85415e-52 3.14471e-52 2.52375e-52 1.99109e-52 1.5435e-52 1.17522e-52 8.78569e-53 6.44703e-53 4.64271e-53 3.28048e-53 2.27406e-53 1.54642e-53 1.03157e-53 6.74995e-54 4.33257e-54 2.72803e-54 1.68514e-54 1.02128e-54 6.0731e-55 3.54393e-55 2.02966e-55 1.14098e-55 6.29671e-56 3.41188e-56 1.81546e-56 9.48773e-57 4.8707e-57 2.45667e-57 1.21759e-57 5.93107e-58 2.83998e-58 1.33698e-58 6.18927e-59 2.81795e-59 1.26207e-59 5.56116e-60 2.41133e-60 1.02903e-60 4.32276e-61 1.78782e-61 7.28103e-62 2.92038e-62 1.15382e-62 4.49111e-63 1.72251e-63 6.51059e-64 2.42512e-64 8.89259e-65 3.17783e-65 1.01109e-65 0 
0 2.96879e-90 1.44044e-89 6.63879e-89 3.02589e-88 1.36624e-87 6.11099e-87 2.70755e-86 1.18819e-85 5.16424e-85 2.22281e-84 9.47408e-84 3.9983e-83 1.67063e-82 6.91058e-82 2.82969e-81 1.14688e-80 4.60052e-80 1.82629e-79 7.17406e-79 2.78838e-78 1.07223e-77 4.07878e-77 1.53474e-76 5.71165e-76 2.10214e-75 7.6505e-75 2.75297e-74 9.79374e-74 3.44417e-73 1.19718e-72 4.11266e-72 1.39613e-71 4.68295e-71 1.55184e-70 5.07997e-70 1.64249e-69 5.2447e-69 1.65371e-68 5.14824e-68 1.58221e-67 4.79976e-67 1.43702e-66 4.24552e-66 1.23757e-65 3.55885e-65 1.00947e-64 2.82391e-64 7.78972e-64 2.11855e-63 5.67982e-63 1.50086e-62 3.9083e-62 1.00278e-61 2.53471e-61 6.31069e-61 1.54733e-60 3.73568e-60 8.87906e-60 2.07729e-59 4.78285e-59 1.08357e-58 2.41509e-58 5.29466e-58 1.14155e-57 2.42004e-57 5.04367e-57 1.03321e-56 2.08005e-56 4.11454e-56 7.99572e-56 1.52618e-55 2.86085e-55 5.26563e-55 9.51485e-55 1.68765e-54 2.93781e-54 5.01842e-54 8.41108e-54 1.383e-53 2.23066e-53 3.52889e-53 5.4752e-53 8.33085e-53 1.24304e-52 1.81877e-52 2.60954e-52 3.67162e-52 5.06621e-52 6.8562e-52 9.10157e-52 1.18539e-51 1.51502e-51 1.90068e-51 2.34146e-51 2.83356e-51 3.37018e-51 3.9418e-51 4.53664e-51 5.14145e-51 5.74246e-51 6.32636e-51 6.88125e-51 7.39734e-51 7.86746e-51 8.28718e-51 8.65463e-51 8.9701e-51 9.23538e-51 9.45311e-51 9.6261e-51 9.75682e-51 9.84707e-51 9.89788e-51 9.9097e-51 9.88272e-51 9.8175e-51 9.71547e-51 9.5796e-51 9.41474e-51 9.2279e-51 9.02806e-51 8.82583e-51 8.63271e-51 8.46014e-51 8.31852e-51 8.21624e-51 8.15887e-51 8.14868e-51 8.1845e-51 8.26196e-51 8.37404e-51 8.51186e-51 8.66561e-51 8.82544e-51 8.98227e-51 9.12836e-51 9.25778e-51 9.36651e-51 9.45243e-51 9.51518e-51 9.55585e-51 9.57666e-51 9.58064e-51 9.57135e-51 9.55253e-51 9.52796e-51 9.50124e-51 9.47564e-51 9.45412e-51 9.43916e-51 9.43285e-51 9.43685e-51 9.45237e-51 9.48018e-51 9.52063e-51 9.57361e-51 9.63859e-51 9.71463e-51 9.80049e-51 9.89469e-51 9.99561e-51 1.01016e-50 1.02111e-50 1.03224e-50 1.0434e-50 1.05438e-50 1.06497e-50 1.0749e-50 1.08387e-50 1.09151e-50 1.09748e-50 1.10144e-50 1.1031e-50 1.10231e-50 1.09902e-50 1.09334e-50 1.0855e-50 1.07582e-50 1.06465e-50 1.05234e-50 1.0391e-50 1.02506e-50 1.01015e-50 9.94143e-51 9.76691e-51 9.57346e-51 9.35632e-51 9.11106e-51 8.83411e-51 8.52314e-51 8.17728e-51 7.79718e-51 7.38488e-51 6.94366e-51 6.47779e-51 5.99238e-51 5.49322e-51 4.98661e-51 4.47929e-51 3.97829e-51 3.4907e-51 3.02343e-51 2.5829e-51 2.17468e-51 1.80321e-51 1.47151e-51 1.18109e-51 9.31901e-52 7.22462e-52 5.50102e-52 4.11251e-52 3.01776e-52 2.1731e-52 1.53539e-52 1.06425e-52 7.23646e-53 4.82659e-53 3.15778e-53 2.02655e-53 1.27581e-53 7.87934e-54 4.77428e-54 2.83845e-54 1.65599e-54 9.48185e-55 5.32896e-55 2.94014e-55 1.59271e-55 8.47255e-56 4.42662e-56 2.27186e-56 1.14556e-56 5.6761e-57 2.76413e-57 1.32318e-57 6.22736e-58 2.882e-58 1.31179e-58 5.87343e-59 2.58733e-59 1.12155e-59 4.7849e-60 2.00948e-60 8.30863e-61 3.38284e-61 1.35648e-61 5.35791e-62 2.08498e-62 7.99463e-63 3.02099e-63 1.12501e-63 4.12427e-64 1.47351e-64 4.6874e-65 0 
0 1.35056e-89 6.55296e-89 3.02022e-88 1.37662e-87 6.21582e-87 2.78033e-86 1.2319e-85 5.40632e-85 2.34985e-84 1.01148e-83 4.31135e-83 1.8196e-82 7.60336e-82 3.14534e-81 1.28802e-80 5.22072e-80 2.09437e-79 8.31482e-79 3.26653e-78 1.26973e-77 4.88305e-77 1.85771e-76 6.99086e-76 2.60198e-75 9.57758e-75 3.48609e-74 1.2546e-73 4.46387e-73 1.57003e-72 5.45815e-72 1.87532e-71 6.36719e-71 2.13605e-70 7.07968e-70 2.31794e-69 7.49589e-69 2.39399e-68 7.54994e-68 2.35088e-67 7.22647e-67 2.19266e-66 6.56612e-66 1.94033e-65 5.65734e-65 1.62725e-64 4.61681e-64 1.29184e-63 3.56443e-63 9.69659e-63 2.60034e-62 6.8731e-62 1.79027e-61 4.59473e-61 1.16172e-60 2.89319e-60 7.09594e-60 1.71367e-59 4.07431e-59 9.5349e-59 2.19603e-58 4.97672e-58 1.10957e-57 2.43329e-57 5.2479e-57 1.11288e-56 2.32012e-56 4.75432e-56 9.57429e-56 1.89447e-55 3.68262e-55 7.03131e-55 1.31842e-54 2.42736e-54 4.38741e-54 7.78408e-54 1.35539e-53 2.3159e-53 3.8825e-53 6.38535e-53 1.03013e-52 1.62999e-52 2.52947e-52 3.84941e-52 5.74459e-52 8.40642e-52 1.20628e-51 1.6974e-51 2.34231e-51 3.17006e-51 4.20837e-51 5.48102e-51 7.00504e-51 8.7879e-51 1.08252e-50 1.30991e-50 1.55781e-50 1.82178e-50 2.09637e-50 2.37545e-50 2.65262e-50 2.92175e-50 3.17734e-50 3.4149e-50 3.63112e-50 3.82401e-50 3.99273e-50 4.13745e-50 4.25903e-50 4.35873e-50 4.43787e-50 4.49761e-50 4.53879e-50 4.5619e-50 4.56715e-50 4.55462e-50 4.52456e-50 4.47762e-50 4.41516e-50 4.33939e-50 4.25352e-50 4.16169e-50 4.06877e-50 3.98003e-50 3.90074e-50 3.83568e-50 3.7887e-50 3.76236e-50 3.75772e-50 3.77422e-50 3.80985e-50 3.86139e-50 3.92475e-50 3.99542e-50 4.06886e-50 4.14091e-50 4.20801e-50 4.26744e-50 4.31735e-50 4.35678e-50 4.38556e-50 4.40419e-50 4.41371e-50 4.4155e-50 4.4112e-50 4.40253e-50 4.39123e-50 4.37894e-50 4.36717e-50 4.35727e-50 4.35039e-50 4.34748e-50 4.34929e-50 4.3564e-50 4.36914e-50 4.38768e-50 4.41198e-50 4.44178e-50 4.47666e-50 4.51605e-50 4.55926e-50 4.60557e-50 4.65421e-50 4.70446e-50 4.75556e-50 4.80675e-50 4.85716e-50 4.9058e-50 4.95143e-50 4.99262e-50 5.02777e-50 5.05522e-50 5.07341e-50 5.08109e-50 5.07747e-50 5.06239e-50 5.03632e-50 5.00032e-50 4.95587e-50 4.90462e-50 4.84808e-50 4.78737e-50 4.72295e-50 4.65456e-50 4.58119e-50 4.50119e-50 4.41252e-50 4.31298e-50 4.20053e-50 4.07352e-50 3.93087e-50 3.77215e-50 3.59765e-50 3.40829e-50 3.20554e-50 2.99134e-50 2.76803e-50 2.53825e-50 2.30489e-50 2.07104e-50 1.83995e-50 1.61491e-50 1.3991e-50 1.19554e-50 1.00681e-50 8.34984e-51 6.815e-51 5.47069e-51 4.31689e-51 3.34693e-51 2.54854e-51 1.90529e-51 1.39808e-51 1.00672e-51 7.11241e-52 4.92953e-52 3.35149e-52 2.23509e-52 1.46208e-52 9.38152e-53 5.905e-53 3.64618e-53 2.20883e-53 1.31292e-53 7.65794e-54 4.38368e-54 2.46307e-54 1.35859e-54 7.35761e-55 3.91286e-55 2.04375e-55 1.04861e-55 5.28592e-56 2.61834e-56 1.2747e-56 6.10009e-57 2.87007e-57 1.32786e-57 6.04219e-58 2.70453e-58 1.19103e-58 5.16136e-59 2.20136e-59 9.24223e-60 3.8203e-60 1.55499e-60 6.23358e-61 2.46151e-61 9.5761e-62 3.67088e-62 1.38678e-62 5.16301e-63 1.89228e-63 6.75911e-64 2.14974e-64 0 
0 6.08615e-89 2.95307e-88 1.36108e-87 6.20397e-87 2.80136e-86 1.25309e-85 5.55235e-85 2.43681e-84 1.0592e-83 4.5595e-83 1.94356e-82 8.20326e-82 3.42803e-81 1.41819e-80 5.80794e-80 2.35432e-79 9.44548e-79 3.75026e-78 1.47345e-77 5.72801e-77 2.20306e-76 8.38224e-76 3.15473e-75 1.17432e-74 4.32308e-74 1.57374e-73 5.66446e-73 2.0157e-72 7.09064e-72 2.46541e-71 8.47206e-71 2.87695e-70 9.65318e-70 3.2e-69 1.0479e-68 3.38939e-68 1.08269e-67 3.41519e-67 1.06363e-66 3.27025e-66 9.92482e-66 2.97275e-65 8.78671e-65 2.56252e-64 7.37253e-64 2.09225e-63 5.85587e-63 1.61617e-62 4.39778e-62 1.17968e-61 3.11895e-61 8.12642e-61 2.08625e-60 5.2764e-60 1.31445e-59 3.22484e-59 7.79039e-59 1.85277e-58 4.33732e-58 9.99269e-58 2.26531e-57 5.05218e-57 1.10831e-56 2.39107e-56 5.07224e-56 1.05779e-55 2.16831e-55 4.36797e-55 8.64571e-55 1.68115e-54 3.21087e-54 6.02246e-54 1.10914e-53 2.00534e-53 3.55888e-53 6.19858e-53 1.05941e-52 1.7765e-52 2.92244e-52 4.71575e-52 7.46344e-52 1.15843e-51 1.76326e-51 2.63179e-51 3.85182e-51 5.52787e-51 7.77926e-51 1.07358e-50 1.45305e-50 1.92904e-50 2.51242e-50 3.21095e-50 4.02799e-50 4.96146e-50 6.00309e-50 7.13832e-50 8.34676e-50 9.60328e-50 1.08797e-49 1.21468e-49 1.33763e-49 1.45432e-49 1.56269e-49 1.66126e-49 1.74911e-49 1.82588e-49 1.89166e-49 1.94688e-49 1.99212e-49 2.02799e-49 2.05503e-49 2.07365e-49 2.08406e-49 2.08636e-49 2.08059e-49 2.06686e-49 2.04545e-49 2.01699e-49 1.98247e-49 1.94336e-49 1.90154e-49 1.85922e-49 1.8188e-49 1.78269e-49 1.75306e-49 1.73167e-49 1.71969e-49 1.71759e-49 1.72513e-49 1.74138e-49 1.76487e-49 1.79374e-49 1.82593e-49 1.85938e-49 1.89219e-49 1.92273e-49 1.94978e-49 1.97249e-49 1.99042e-49 2.0035e-49 2.01196e-49 2.01627e-49 2.01707e-49 2.0151e-49 2.01114e-49 2.00598e-49 2.00038e-49 1.99502e-49 1.9905e-49 1.98736e-49 1.98603e-49 1.98685e-49 1.99007e-49 1.99586e-49 2.00429e-49 2.01533e-49 2.02887e-49 2.04473e-49 2.06264e-49 2.08229e-49 2.10335e-49 2.12547e-49 2.14832e-49 2.17157e-49 2.19486e-49 2.2178e-49 2.23994e-49 2.26072e-49 2.27948e-49 2.29549e-49 2.308e-49 2.3163e-49 2.31981e-49 2.31817e-49 2.31132e-49 2.29946e-49 2.28308e-49 2.26285e-49 2.23953e-49 2.21381e-49 2.1862e-49 2.15691e-49 2.12583e-49 2.0925e-49 2.05616e-49 2.01588e-49 1.97066e-49 1.91956e-49 1.86184e-49 1.79699e-49 1.72481e-49 1.64541e-49 1.55922e-49 1.46688e-49 1.36928e-49 1.26746e-49 1.16262e-49 1.05607e-49 9.49232e-50 8.43579e-50 7.40618e-50 6.41826e-50 5.4858e-50 4.62083e-50 3.83299e-50 3.12894e-50 2.51207e-50 1.98246e-50 1.53713e-50 1.17051e-50 8.75077e-51 6.4211e-51 4.62346e-51 3.26622e-51 2.26357e-51 1.53877e-51 1.02606e-51 6.71086e-52 4.3053e-52 2.70935e-52 1.6726e-52 1.01303e-52 6.01996e-53 3.51042e-53 2.00897e-53 1.12848e-53 6.22278e-54 3.36907e-54 1.79119e-54 9.35292e-55 4.79734e-55 2.41755e-55 1.19715e-55 5.82632e-56 2.78734e-56 1.31103e-56 6.06368e-57 2.7583e-57 1.23426e-57 5.43379e-58 2.35402e-58 1.0037e-58 4.2127e-59 1.74081e-59 7.08358e-60 2.83882e-60 1.12067e-60 4.35855e-61 1.67034e-61 6.30845e-62 2.34802e-62 8.60344e-63 3.07234e-63 9.76966e-64 0 
0 2.71685e-88 1.31827e-87 6.07613e-87 2.76965e-86 1.25066e-85 5.59459e-85 2.47903e-84 1.08804e-83 4.72963e-83 2.03605e-82 8.67951e-82 3.66363e-81 1.53108e-80 6.33465e-80 2.59443e-79 1.05177e-78 4.22006e-78 1.6757e-77 6.58434e-77 2.55992e-76 9.84682e-76 3.74696e-75 1.41037e-74 5.25065e-74 1.93319e-73 7.03839e-73 2.53374e-72 9.01765e-72 3.17264e-71 1.1033e-70 3.79198e-70 1.28791e-69 4.32216e-69 1.43305e-68 4.69366e-68 1.51845e-67 4.85148e-67 1.53065e-66 4.76812e-66 1.46633e-65 4.45118e-65 1.33356e-64 3.94264e-64 1.1501e-63 3.30976e-63 9.39523e-63 2.63028e-62 7.26136e-62 1.97645e-61 5.30323e-61 1.40253e-60 3.65538e-60 9.3871e-60 2.37486e-59 5.91805e-59 1.45238e-58 3.50972e-58 8.34983e-58 1.95533e-57 4.50636e-57 1.02192e-56 2.27989e-56 5.00314e-56 1.07975e-55 2.29128e-55 4.78e-55 9.80155e-55 1.97515e-54 3.91081e-54 7.60707e-54 1.45337e-53 2.72688e-53 5.02361e-53 9.08558e-53 1.6129e-52 2.81004e-52 4.80402e-52 8.05795e-52 1.32591e-51 2.14006e-51 3.38775e-51 5.25937e-51 8.00685e-51 1.19529e-50 1.74966e-50 2.51132e-50 3.5345e-50 4.87819e-50 6.60286e-50 8.76612e-50 1.14173e-49 1.45913e-49 1.83033e-49 2.25434e-49 2.72736e-49 3.24273e-49 3.79112e-49 4.36109e-49 4.9398e-49 5.51394e-49 6.07073e-49 6.59877e-49 7.0888e-49 7.53409e-49 7.9306e-49 8.27678e-49 8.57313e-49 8.82162e-49 9.02497e-49 9.18606e-49 9.30738e-49 9.39075e-49 9.43719e-49 9.44715e-49 9.42079e-49 9.35859e-49 9.26184e-49 9.13328e-49 8.97744e-49 8.80087e-49 8.61205e-49 8.42099e-49 8.23854e-49 8.07553e-49 7.94181e-49 7.8453e-49 7.79127e-49 7.78186e-49 7.81595e-49 7.88939e-49 7.99551e-49 8.1259e-49 8.27126e-49 8.42227e-49 8.57033e-49 8.70816e-49 8.83015e-49 8.93254e-49 9.01336e-49 9.07229e-49 9.11036e-49 9.12972e-49 9.13323e-49 9.12425e-49 9.10633e-49 9.08302e-49 9.0577e-49 9.03347e-49 9.01308e-49 8.99889e-49 8.99284e-49 8.99649e-49 9.01098e-49 9.03703e-49 9.07497e-49 9.12471e-49 9.18574e-49 9.2572e-49 9.3379e-49 9.42646e-49 9.52138e-49 9.6211e-49 9.72413e-49 9.82894e-49 9.93397e-49 1.00375e-48 1.01373e-48 1.02311e-48 1.03158e-48 1.03881e-48 1.04446e-48 1.04821e-48 1.0498e-48 1.04907e-48 1.04598e-48 1.04063e-48 1.03325e-48 1.02412e-48 1.01361e-48 1.00201e-48 9.89566e-49 9.76371e-49 9.62372e-49 9.47361e-49 9.31e-49 9.12867e-49 8.9251e-49 8.69504e-49 8.43505e-49 8.14286e-49 7.81753e-49 7.45955e-49 7.0707e-49 6.65393e-49 6.21314e-49 5.753e-49 5.2789e-49 4.79673e-49 4.3129e-49 3.83409e-49 3.36716e-49 2.91885e-49 2.49544e-49 2.10246e-49 1.74435e-49 1.42419e-49 1.14357e-49 9.02569e-50 6.9987e-50 5.32964e-50 3.98452e-50 2.92368e-50 2.10507e-50 1.48701e-50 1.03043e-50 7.00398e-51 4.66958e-51 3.05361e-51 1.95866e-51 1.23234e-51 7.60613e-52 4.60564e-52 2.73624e-52 1.59517e-52 9.12649e-53 5.1251e-53 2.82532e-53 1.5292e-53 8.12762e-54 4.24263e-54 2.17547e-54 1.09595e-54 5.4253e-55 2.63955e-55 1.26236e-55 5.93559e-56 2.7444e-56 1.248e-56 5.58259e-57 2.45694e-57 1.06405e-57 4.53545e-58 1.903e-58 7.86134e-59 3.1979e-59 1.2812e-59 5.05624e-60 1.96592e-60 7.53185e-61 2.84379e-61 1.05817e-61 3.87623e-62 1.38387e-62 4.39963e-63 0 
0 1.20129e-87 5.82906e-87 2.6868e-86 1.22475e-85 5.53066e-85 2.47414e-84 1.09637e-83 4.81222e-83 2.09194e-82 9.00611e-82 3.83948e-81 1.62076e-80 6.77388e-80 2.80282e-79 1.14802e-78 4.65444e-78 1.8677e-77 7.41696e-77 2.91466e-76 1.13331e-75 4.35982e-75 1.65922e-74 6.24616e-74 2.32568e-73 8.5639e-73 3.1184e-72 1.12276e-71 3.99655e-71 1.40631e-70 4.89135e-70 1.68142e-69 5.71181e-69 1.91721e-68 6.35791e-68 2.08283e-67 6.73957e-67 2.15376e-66 6.79664e-66 2.1177e-65 6.51407e-65 1.97787e-64 5.92712e-64 1.75278e-63 5.11435e-63 1.4722e-62 4.1802e-62 1.17061e-61 3.23261e-61 8.80133e-61 2.36229e-60 6.24938e-60 1.62927e-59 4.18532e-59 1.05919e-58 2.64032e-58 6.48192e-58 1.5669e-57 3.72901e-57 8.73546e-57 2.01392e-56 4.5686e-56 1.01961e-55 2.23829e-55 4.83228e-55 1.02579e-54 2.14074e-54 4.39122e-54 8.85205e-54 1.75332e-53 3.41164e-53 6.52033e-53 1.22379e-52 2.25527e-52 4.08015e-52 7.24548e-52 1.26271e-51 2.15936e-51 3.62298e-51 5.9631e-51 9.62703e-51 1.52434e-50 2.367e-50 3.60423e-50 5.38147e-50 7.87863e-50 1.13099e-49 1.59197e-49 2.19737e-49 2.97442e-49 3.94905e-49 5.14341e-49 6.57317e-49 8.24499e-49 1.01542e-48 1.22836e-48 1.46028e-48 1.70697e-48 1.96325e-48 2.22332e-48 2.48119e-48 2.73109e-48 2.96792e-48 3.18751e-48 3.38688e-48 3.56423e-48 3.71891e-48 3.85119e-48 3.96199e-48 4.05256e-48 4.12423e-48 4.17814e-48 4.21512e-48 4.23563e-48 4.23989e-48 4.22795e-48 4.20002e-48 4.15668e-48 4.09912e-48 4.02938e-48 3.95037e-48 3.86589e-48 3.7804e-48 3.69877e-48 3.62584e-48 3.56602e-48 3.52285e-48 3.4987e-48 3.49452e-48 3.50982e-48 3.54271e-48 3.59023e-48 3.64859e-48 3.71364e-48 3.78121e-48 3.84743e-48 3.90907e-48 3.96361e-48 4.00936e-48 4.04546e-48 4.07176e-48 4.08874e-48 4.09735e-48 4.09888e-48 4.09483e-48 4.08678e-48 4.07634e-48 4.06499e-48 4.05415e-48 4.04501e-48 4.03865e-48 4.03593e-48 4.03755e-48 4.044e-48 4.05562e-48 4.07256e-48 4.09476e-48 4.12202e-48 4.15393e-48 4.18997e-48 4.22953e-48 4.27193e-48 4.31648e-48 4.36252e-48 4.40935e-48 4.4563e-48 4.50256e-48 4.54722e-48 4.58916e-48 4.62704e-48 4.65941e-48 4.68472e-48 4.70153e-48 4.70867e-48 4.70543e-48 4.69164e-48 4.66774e-48 4.63471e-48 4.59394e-48 4.54694e-48 4.49512e-48 4.43953e-48 4.38061e-48 4.31812e-48 4.25114e-48 4.17815e-48 4.09726e-48 4.00644e-48 3.90378e-48 3.78774e-48 3.65729e-48 3.51198e-48 3.35202e-48 3.17819e-48 2.99177e-48 2.79448e-48 2.5884e-48 2.37591e-48 2.15965e-48 1.94248e-48 1.72741e-48 1.51752e-48 1.31586e-48 1.12529e-48 9.48308e-49 7.86947e-49 6.42622e-49 5.16074e-49 4.07359e-49 3.15898e-49 2.40572e-49 1.79857e-49 1.31969e-49 9.50136e-50 6.71117e-50 4.65004e-50 3.1603e-50 2.10666e-50 1.37738e-50 8.83313e-51 5.55643e-51 3.42869e-51 2.07562e-51 1.23282e-51 7.18514e-52 4.10968e-52 2.30717e-52 1.27149e-52 6.8798e-53 3.65542e-53 1.90752e-53 9.77786e-54 4.92422e-54 2.43683e-54 1.18518e-54 5.66622e-55 2.66334e-55 1.23102e-55 5.59606e-56 2.50241e-56 1.10096e-56 4.76647e-57 2.031e-57 8.51899e-58 3.51807e-58 1.43065e-58 5.72995e-59 2.26061e-59 8.78682e-60 3.3654e-60 1.2703e-60 4.72539e-61 1.73049e-61 6.17645e-62 1.96321e-62 0 
0 5.2609e-87 2.55283e-86 1.17672e-85 5.36417e-85 2.42242e-84 1.08372e-83 4.80257e-83 2.10807e-82 9.16462e-82 3.94575e-81 1.68226e-80 7.10185e-80 2.96842e-79 1.22834e-78 5.03169e-78 2.04019e-77 8.18752e-77 3.25176e-76 1.27799e-75 4.96979e-75 1.9121e-74 7.27782e-74 2.74011e-73 1.02039e-72 3.75793e-72 1.3686e-71 4.92829e-71 1.75455e-70 6.175e-70 2.14813e-69 7.38562e-69 2.50938e-68 8.42458e-68 2.79434e-67 9.15607e-67 2.96335e-66 9.47206e-66 2.98979e-65 9.31782e-65 2.86687e-64 8.70688e-64 2.60987e-63 7.72003e-63 2.25319e-62 6.48779e-62 1.84268e-61 5.16171e-61 1.42581e-60 3.88321e-60 1.04258e-59 2.759e-59 7.19528e-59 1.84896e-58 4.68078e-58 1.16721e-57 2.86646e-57 6.93162e-57 1.65022e-56 3.86713e-56 8.91869e-56 2.02396e-55 4.51869e-55 9.92326e-55 2.14314e-54 4.55114e-54 9.50133e-54 1.94969e-53 3.93173e-53 7.79042e-53 1.51642e-52 2.89921e-52 5.44339e-52 1.00349e-51 1.81608e-51 3.22603e-51 5.62398e-51 9.62047e-51 1.6146e-50 2.65823e-50 4.29267e-50 6.79866e-50 1.05594e-49 1.60822e-49 2.40168e-49 3.51671e-49 5.04901e-49 7.10777e-49 9.81163e-49 1.32822e-48 1.7635e-48 2.29687e-48 2.9353e-48 3.68167e-48 4.53385e-48 5.48401e-48 6.51853e-48 7.61849e-48 8.76066e-48 9.91909e-48 1.1067e-47 1.21786e-47 1.32313e-47 1.42065e-47 1.5091e-47 1.58771e-47 1.65619e-47 1.71469e-47 1.76364e-47 1.8036e-47 1.83519e-47 1.85891e-47 1.87516e-47 1.88413e-47 1.88592e-47 1.88056e-47 1.86813e-47 1.84888e-47 1.82335e-47 1.79241e-47 1.75738e-47 1.71991e-47 1.68201e-47 1.64581e-47 1.61347e-47 1.58695e-47 1.56781e-47 1.55711e-47 1.55528e-47 1.56207e-47 1.57668e-47 1.59776e-47 1.62366e-47 1.65251e-47 1.68246e-47 1.71182e-47 1.73913e-47 1.7633e-47 1.78356e-47 1.79954e-47 1.81117e-47 1.81868e-47 1.82247e-47 1.82313e-47 1.82131e-47 1.81773e-47 1.81309e-47 1.80806e-47 1.80324e-47 1.79919e-47 1.79636e-47 1.79515e-47 1.79586e-47 1.79871e-47 1.80384e-47 1.81133e-47 1.82116e-47 1.83322e-47 1.84734e-47 1.8633e-47 1.88081e-47 1.89958e-47 1.91931e-47 1.93969e-47 1.96043e-47 1.98123e-47 2.00172e-47 2.02151e-47 2.0401e-47 2.0569e-47 2.07126e-47 2.08249e-47 2.08996e-47 2.09314e-47 2.09172e-47 2.08561e-47 2.07503e-47 2.0604e-47 2.04233e-47 2.02152e-47 1.99857e-47 1.97396e-47 1.94789e-47 1.92025e-47 1.89063e-47 1.85837e-47 1.82261e-47 1.78246e-47 1.73708e-47 1.68576e-47 1.62804e-47 1.56373e-47 1.49291e-47 1.4159e-47 1.33327e-47 1.24576e-47 1.15429e-47 1.05992e-47 9.63789e-48 8.67181e-48 7.71433e-48 6.77924e-48 5.88018e-48 5.02997e-48 4.23994e-48 3.51925e-48 2.87435e-48 2.30865e-48 1.82252e-48 1.41343e-48 1.07644e-48 8.04779e-49 5.90488e-49 4.25111e-49 3.00246e-49 2.08012e-49 1.41352e-49 9.42102e-50 6.15854e-50 3.94866e-50 2.48333e-50 1.53201e-50 9.27195e-51 5.50561e-51 3.20787e-51 1.83426e-51 1.02944e-51 5.67148e-52 3.06774e-52 1.62943e-52 8.50005e-53 4.3556e-53 2.19276e-53 1.08475e-53 5.27395e-54 2.52053e-54 1.18433e-54 5.47212e-55 2.48669e-55 1.11159e-55 4.88886e-56 2.11584e-56 9.01253e-57 3.779e-57 1.56008e-57 6.3421e-58 2.53926e-58 1.00148e-58 3.89143e-59 1.48998e-59 5.6223e-60 2.09082e-60 7.65455e-61 2.7313e-61 8.67961e-62 0 
0 2.28173e-86 1.10723e-85 5.10395e-85 2.32677e-84 1.0508e-83 4.70123e-83 2.08349e-82 9.14592e-82 3.97636e-81 1.71211e-80 7.30007e-80 3.08205e-79 1.28834e-78 5.33165e-78 2.18422e-77 8.85722e-77 3.55487e-76 1.41201e-75 5.55004e-75 2.15854e-74 8.30592e-74 3.16182e-73 1.19059e-72 4.43428e-72 1.63333e-71 5.94933e-71 2.1427e-70 7.62965e-70 2.68567e-69 9.34449e-69 3.2134e-68 1.09202e-67 3.66691e-67 1.21653e-66 3.98701e-66 1.29068e-65 4.1265e-65 1.30281e-64 4.06127e-64 1.24987e-63 3.79695e-63 1.13843e-62 3.36843e-62 9.83398e-62 2.83239e-61 8.04703e-61 2.25482e-60 6.23039e-60 1.69739e-59 4.5587e-59 1.20678e-58 3.14825e-58 8.09277e-58 2.04946e-57 5.11239e-57 1.25596e-56 3.03826e-56 7.23587e-56 1.69629e-55 3.9136e-55 8.88469e-55 1.98435e-54 4.35941e-54 9.4187e-54 2.00091e-53 4.17889e-53 8.57846e-53 1.73059e-52 3.43033e-52 6.67971e-52 1.27756e-51 2.39955e-51 4.42515e-51 8.01132e-51 1.42359e-50 2.48259e-50 4.24812e-50 7.13179e-50 1.1745e-49 1.89718e-49 3.00549e-49 4.66913e-49 7.11274e-49 1.06241e-48 1.55593e-48 2.23421e-48 3.1456e-48 4.34263e-48 5.8791e-48 7.80609e-48 1.01671e-47 1.29928e-47 1.62957e-47 2.00659e-47 2.42684e-47 2.88423e-47 3.37035e-47 3.87486e-47 4.38627e-47 4.89268e-47 5.38275e-47 5.84641e-47 6.27557e-47 6.66443e-47 7.00963e-47 7.31004e-47 7.56635e-47 7.78052e-47 7.9552e-47 8.09308e-47 8.19651e-47 8.26717e-47 8.30602e-47 8.31344e-47 8.28957e-47 8.23474e-47 8.15003e-47 8.03775e-47 7.90179e-47 7.74781e-47 7.58318e-47 7.4166e-47 7.25752e-47 7.11542e-47 6.99888e-47 6.91482e-47 6.86786e-47 6.85985e-47 6.8898e-47 6.95405e-47 7.04677e-47 7.1606e-47 7.2874e-47 7.41903e-47 7.548e-47 7.66795e-47 7.77402e-47 7.86294e-47 7.93302e-47 7.98402e-47 8.01686e-47 8.03342e-47 8.03621e-47 8.02817e-47 8.01238e-47 7.99194e-47 7.96979e-47 7.94861e-47 7.93078e-47 7.91834e-47 7.91298e-47 7.91604e-47 7.9285e-47 7.95101e-47 7.98384e-47 8.02692e-47 8.0798e-47 8.14174e-47 8.21173e-47 8.28855e-47 8.3709e-47 8.45745e-47 8.5469e-47 8.63793e-47 8.72921e-47 8.8192e-47 8.90612e-47 8.98778e-47 9.06161e-47 9.12473e-47 9.17413e-47 9.20699e-47 9.22103e-47 9.21483e-47 9.18807e-47 9.14162e-47 9.07739e-47 8.99809e-47 8.90671e-47 8.80603e-47 8.69807e-47 8.58376e-47 8.46263e-47 8.33287e-47 8.19155e-47 8.03494e-47 7.8591e-47 7.66027e-47 7.4354e-47 7.18241e-47 6.90041e-47 6.58968e-47 6.25164e-47 5.88871e-47 5.50413e-47 5.10185e-47 4.68644e-47 4.26301e-47 3.83712e-47 3.41468e-47 3.00179e-47 2.60452e-47 2.22858e-47 1.87904e-47 1.56e-47 1.27437e-47 1.02372e-47 8.08247e-48 6.26874e-48 4.77436e-48 3.56947e-48 2.61895e-48 1.88535e-48 1.33147e-48 9.22338e-49 6.26671e-49 4.17603e-49 2.72936e-49 1.74961e-49 1.10008e-49 6.78488e-50 4.1052e-50 2.43695e-50 1.41948e-50 8.11407e-51 4.55238e-51 2.50721e-51 1.35571e-51 7.19837e-52 3.75377e-52 1.92282e-52 9.67669e-53 4.78526e-53 2.3257e-53 1.11109e-53 5.2188e-54 2.41044e-54 1.09497e-54 4.89292e-55 2.15116e-55 9.30659e-56 3.96278e-56 1.66103e-56 6.85481e-57 2.78568e-57 1.11495e-57 4.39588e-58 1.70754e-58 6.5358e-59 2.46544e-59 9.16559e-60 3.35453e-60 1.19662e-60 3.80178e-61 0 