# vtk DataFile Version 3.0
Gray-Scott Simulation Output
ASCII
DATASET STRUCTURED_POINTS
DIMENSIONS 256 256 1
SPACING 1.0 1.0 1.0
ORIGIN 0 0 0
POINT_DATA 65536
SCALARS u double
LOOKUP_TABLE default
0 0 0 0 0 0 0 0 0 0 0 0 0 0 0 0 0 0 0 0 0 0 0 0 0 0 0 0 0 0 0 0 0 0 0 0 0 0 0 0 0 0 0 0 0 0 0 0 0 0 0 0 0 0 0 0 0 0 0 0 0 0 0 0 0 0 0 0 0 0 0 0 0 0 0 0 0 0 0 0 0 0 0 0 0 0 0 0 0 0 0 0 0 0 0 0 0 0 0 0 0 0 0 0 0 0 0 0 0 0 0 0 0 0 0 0 0 0 0 0 0 0 0 0 0 0 0 0 0 0 0 0 0 0 0 0 0 0 0 0 0 0 0 0 0 0 0 0 0 0 0 0 0 0 0 0 0 0 0 0 0 0 0 0 0 0 0 0 0 0 0 0 0 0 0 0 0 0 0 0 0 0 0 0 0 0 0 0 0 0 0 0 0 0 0 0 0 0 0 0 0 0 0 0 0 0 0 0 0 0 0 0 0 0 0 0 0 0 0 0 0 0 0 0 0 0 0 0 0 0 0 0 0 0 0 0 0 0 0 0 0 0 0 0 0 0 0 0 0 0 0 0 0 0 0 0 
0 2.906e-184 6.11065e-183 1.26813e-181 2.60271e-180 5.28245e-179 1.0601e-177 2.10334e-176 4.12552e-175 7.99845e-174 1.53264e-172 2.90224e-171 5.43038e-170 1.00388e-168 1.83327e-167 3.30687e-166 5.89105e-165 1.03633e-163 1.79998e-162 3.08637e-161 5.22363e-160 8.72527e-159 1.43814e-157 2.33869e-156 3.75168e-155 5.93593e-154 9.26167e-153 1.4248e-151 2.16076e-150 3.22975e-149 4.7573e-148 6.90398e-147 9.86964e-146 1.38956e-144 1.92638e-143 2.62905e-142 3.53146e-141 4.66779e-140 6.06972e-139 7.76288e-138 9.76264e-137 1.20696e-135 1.4665e-134 1.75073e-133 2.05298e-132 2.36402e-131 2.67233e-130 2.9646e-129 3.22657e-128 3.44406e-127 3.60417e-126 3.69651e-125 3.71423e-124 3.65485e-123 3.52064e-122 3.31853e-121 3.05952e-120 2.75772e-119 2.42903e-118 2.08974e-117 1.75511e-116 1.43828e-115 1.14938e-114 8.95187e-114 6.79098e-113 5.01468e-112 3.60209e-111 2.51515e-110 1.70589e-109 1.12301e-108 7.16967e-108 4.43539e-107 2.65636e-106 1.53867e-105 8.61141e-105 4.65161e-104 2.42238e-103 1.2147e-102 5.8577e-102 2.71287e-101 1.20489e-100 5.12413e-100 2.08321e-99 8.08228e-99 2.98689e-98 1.04938e-97 3.49761e-97 1.1035e-96 3.28789e-96 9.22879e-96 2.43411e-95 6.01671e-95 1.39006e-94 2.99373e-94 5.99495e-94 1.11366e-93 1.91558e-93 3.04729e-93 4.48259e-93 6.10557e-93 7.72651e-93 9.14053e-93 1.02054e-92 1.08963e-92 1.1303e-92 1.15723e-92 1.18279e-92 1.21159e-92 1.24041e-92 1.26297e-92 1.27591e-92 1.2819e-92 1.28796e-92 1.30086e-92 1.32313e-92 1.35189e-92 1.3801e-92 1.39891e-92 1.39956e-92 1.3745e-92 1.31818e-92 1.22852e-92 1.10915e-92 9.71377e-93 8.33671e-93 7.17944e-93 6.43529e-93 6.21503e-93 6.51793e-93 7.24109e-93 8.2183e-93 9.26854e-93 1.02353e-92 1.101e-92 1.15441e-92 1.18516e-92 1.19981e-92 1.20715e-92 1.21451e-92 1.22495e-92 1.23686e-92 1.24576e-92 1.24684e-92 1.2371e-92 1.21647e-92 1.18804e-92 1.1573e-92 1.13025e-92 1.11126e-92 1.10181e-92 1.10057e-92 1.10428e-92 1.10896e-92 1.11107e-92 1.10908e-92 1.10449e-92 1.10183e-92 1.10713e-92 1.12577e-92 1.16036e-92 1.20923e-92 1.26577e-92 1.31947e-92 1.35911e-92 1.37692e-92 1.37182e-92 1.35024e-92 1.32501e-92 1.31256e-92 1.3281e-92 1.37946e-92 1.46203e-92 1.55803e-92 1.64146e-92 1.687e-92 1.67888e-92 1.61655e-92 1.51485e-92 1.39872e-92 1.29413e-92 1.21932e-92 1.18063e-92 1.1746e-92 1.19349e-92 1.22939e-92 1.27418e-92 1.31713e-92 1.34402e-92 1.34043e-92 1.29744e-92 1.21605e-92 1.10742e-92 9.8885e-93 8.77665e-93 7.85592e-93 7.15528e-93 6.61512e-93 6.11946e-93 5.54962e-93 4.83701e-93 3.98996e-93 3.08293e-93 2.21773e-93 1.48063e-93 9.16429e-94 5.25973e-94 2.80232e-94 1.38831e-94 6.40849e-95 2.76252e-95 1.11473e-95 4.22083e-96 1.50328e-96 5.04799e-97 1.60188e-97 4.81427e-98 1.37318e-98 3.72473e-99 9.62605e-100 2.37447e-100 5.59995e-101 1.26472e-101 2.73933e-102 5.69844e-103 1.14e-103 2.19605e-104 4.07833e-105 7.30995e-106 1.2659e-106 2.12019e-107 3.4376e-108 5.40045e-109 8.2276e-110 1.21657e-110 1.74725e-111 2.43922e-112 3.31228e-113 4.37795e-114 5.63587e-115 7.07067e-116 8.65013e-117 1.03249e-117 1.20305e-118 1.36911e-119 1.5225e-120 1.65519e-121 1.75997e-122 1.8311e-123 1.86489e-124 1.85995e-125 1.81728e-126 1.74012e-127 1.63352e-128 1.50377e-129 1.34776e-130 0 
0 6.10861e-183 1.28338e-181 2.66105e-180 5.4568e-179 1.10655e-177 2.21872e-176 4.39834e-175 8.61951e-174 1.66968e-172 3.19664e-171 6.048e-170 1.13067e-168 2.08839e-167 3.81053e-166 6.86758e-165 1.22238e-163 2.14852e-162 3.72856e-161 6.3878e-160 1.08021e-158 1.80279e-157 2.96893e-156 4.82396e-155 7.73196e-154 1.22232e-152 1.90556e-151 2.92902e-150 4.43823e-149 6.62841e-148 9.75525e-147 1.41454e-145 2.02049e-144 2.84232e-143 3.9371e-142 5.36876e-141 7.20562e-140 9.51635e-139 1.23643e-137 1.58005e-136 1.98545e-135 2.45261e-134 2.97759e-133 3.55182e-132 4.16164e-131 4.78829e-130 5.4084e-129 5.9951e-128 6.51963e-127 6.95353e-126 7.271e-125 7.45136e-124 7.48115e-123 7.35574e-122 7.08006e-121 6.66837e-120 6.1431e-119 5.53282e-118 4.8696e-117 4.18616e-116 3.51314e-115 2.87673e-114 2.29714e-113 1.78776e-112 1.35519e-111 9.99962e-111 7.17745e-110 5.00791e-109 3.39409e-108 2.23271e-107 1.4244e-106 8.80542e-106 5.26977e-105 3.05029e-104 1.70593e-103 9.20841e-103 4.79205e-102 2.40131e-101 1.1572e-100 5.35574e-100 2.37712e-99 1.01027e-98 4.10459e-98 1.59146e-97 5.87774e-97 2.06377e-96 6.87451e-96 2.16766e-95 6.45498e-95 1.81088e-94 4.77377e-94 1.17942e-93 2.7236e-93 5.86322e-93 1.17365e-92 2.17949e-92 3.74774e-92 5.96037e-92 8.76599e-92 1.19381e-91 1.51062e-91 1.78701e-91 1.99521e-91 2.13034e-91 2.20994e-91 2.26262e-91 2.31254e-91 2.36874e-91 2.425e-91 2.46906e-91 2.4944e-91 2.50624e-91 2.51824e-91 2.54359e-91 2.58723e-91 2.64349e-91 2.69865e-91 2.73541e-91 2.73666e-91 2.68764e-91 2.57753e-91 2.40223e-91 2.16891e-91 1.89963e-91 1.63052e-91 1.40438e-91 1.25899e-91 1.21597e-91 1.27519e-91 1.41653e-91 1.60751e-91 1.81278e-91 2.00173e-91 2.15317e-91 2.25763e-91 2.31783e-91 2.34654e-91 2.36095e-91 2.37533e-91 2.39564e-91 2.41878e-91 2.43601e-91 2.43799e-91 2.41885e-91 2.37848e-91 2.32297e-91 2.26299e-91 2.21026e-91 2.17331e-91 2.15498e-91 2.15263e-91 2.15993e-91 2.16904e-91 2.17312e-91 2.16917e-91 2.16016e-91 2.15493e-91 2.16526e-91 2.20165e-91 2.26918e-91 2.36459e-91 2.47497e-91 2.5798e-91 2.65719e-91 2.69203e-91 2.68215e-91 2.64013e-91 2.59103e-91 2.56687e-91 2.59732e-91 2.69766e-91 2.85887e-91 3.04621e-91 3.209e-91 3.2978e-91 3.2819e-91 3.16021e-91 2.96171e-91 2.73503e-91 2.53085e-91 2.38473e-91 2.30912e-91 2.29727e-91 2.33409e-91 2.40415e-91 2.49159e-91 2.5754e-91 2.62785e-91 2.62078e-91 2.53674e-91 2.37768e-91 2.16536e-91 1.93356e-91 1.71612e-91 1.53596e-91 1.39879e-91 1.29302e-91 1.19601e-91 1.08459e-91 9.45336e-92 7.79847e-92 6.02641e-92 4.33585e-92 2.89535e-92 1.7925e-92 1.02907e-92 5.48447e-93 2.71804e-93 1.25513e-93 5.41277e-94 2.18512e-94 8.27769e-95 2.94962e-95 9.90996e-96 3.14644e-96 9.46157e-97 2.70032e-97 7.32892e-98 1.89522e-98 4.6779e-99 1.10394e-99 2.49482e-100 5.40728e-101 1.12559e-101 2.25335e-102 4.34375e-103 8.07252e-104 1.44793e-104 2.50925e-105 4.20564e-106 6.82381e-107 1.0728e-107 1.63562e-108 2.4203e-109 3.47868e-110 4.86e-111 6.6045e-112 8.73605e-113 1.12548e-113 1.41309e-114 1.73009e-115 2.06666e-116 2.40994e-117 2.74473e-118 3.05465e-119 3.32348e-120 3.53666e-121 3.68253e-122 3.75347e-123 3.74652e-124 3.66352e-125 3.51078e-126 3.29837e-127 3.03885e-128 2.72575e-129 0 
0 1.26726e-181 2.66013e-180 5.51085e-179 1.12908e-177 2.28759e-176 4.58281e-175 9.07697e-174 1.77728e-172 3.43979e-171 6.57984e-170 1.24382e-168 2.3233e-167 4.28753e-166 7.81643e-165 1.40751e-163 2.50313e-162 4.39587e-161 7.6221e-160 1.30471e-158 2.20444e-157 3.67593e-156 6.04857e-155 9.81948e-154 1.57256e-152 2.48391e-151 3.86906e-150 5.94209e-149 8.99627e-148 1.34245e-146 1.97407e-145 2.86007e-144 4.08183e-143 5.73733e-142 7.94059e-141 1.08191e-139 1.45087e-138 1.91456e-137 2.48549e-136 3.17361e-135 3.98462e-134 4.91815e-133 5.966e-132 7.11075e-131 8.32485e-130 9.57063e-129 1.08014e-127 1.19634e-126 1.29997e-125 1.38538e-124 1.44747e-123 1.48219e-122 1.48694e-121 1.46086e-120 1.405e-119 1.32226e-118 1.21715e-117 1.09538e-116 9.63326e-116 8.27485e-115 6.93911e-114 5.67773e-113 4.53034e-112 3.52307e-111 2.6686e-110 1.96761e-109 1.41124e-108 9.83929e-108 6.66358e-107 4.38024e-106 2.79242e-105 1.72497e-104 1.0316e-103 5.9669e-103 3.33472e-102 1.79878e-101 9.35429e-101 4.68423e-100 2.25582e-99 1.04333e-98 4.62768e-98 1.96546e-97 7.98026e-97 3.0922e-96 1.14133e-95 4.00497e-95 1.33328e-94 4.20166e-94 1.2505e-93 3.50626e-93 9.23832e-93 2.28133e-92 5.2658e-92 1.13311e-91 2.26728e-91 4.20891e-91 7.23524e-91 1.15039e-90 1.69156e-90 2.30334e-90 2.91433e-90 3.44742e-90 3.8491e-90 4.10991e-90 4.26363e-90 4.36532e-90 4.46153e-90 4.56977e-90 4.6781e-90 4.76301e-90 4.81199e-90 4.83508e-90 4.85854e-90 4.90771e-90 4.99207e-90 5.10068e-90 5.2071e-90 5.27799e-90 5.28036e-90 5.18576e-90 4.97331e-90 4.63514e-90 4.1851e-90 3.66578e-90 3.14684e-90 2.71081e-90 2.4305e-90 2.34761e-90 2.46185e-90 2.73444e-90 3.10275e-90 3.49861e-90 3.86304e-90 4.15518e-90 4.35675e-90 4.47302e-90 4.52857e-90 4.55646e-90 4.58417e-90 4.62319e-90 4.66755e-90 4.70047e-90 4.70398e-90 4.66687e-90 4.58895e-90 4.48196e-90 4.3665e-90 4.2651e-90 4.19415e-90 4.15907e-90 4.15472e-90 4.16884e-90 4.18637e-90 4.19414e-90 4.18641e-90 4.16895e-90 4.15879e-90 4.17867e-90 4.24875e-90 4.37885e-90 4.56265e-90 4.77526e-90 4.97721e-90 5.12633e-90 5.19353e-90 5.17466e-90 5.09393e-90 4.99962e-90 4.95337e-90 5.01228e-90 5.20571e-90 5.51625e-90 5.87701e-90 6.1904e-90 6.36128e-90 6.33056e-90 6.09614e-90 5.71381e-90 5.27722e-90 4.88389e-90 4.60232e-90 4.45649e-90 4.43351e-90 4.50435e-90 4.63925e-90 4.80768e-90 4.96908e-90 5.07002e-90 5.05625e-90 4.89415e-90 4.58742e-90 4.17795e-90 3.7308e-90 3.31116e-90 2.96331e-90 2.69833e-90 2.49396e-90 2.30661e-90 2.09163e-90 1.8231e-90 1.50406e-90 1.16243e-90 8.36481e-91 5.58691e-91 3.45967e-91 1.98674e-91 1.05917e-91 5.25095e-92 2.4257e-92 1.04652e-92 4.22663e-93 1.60189e-93 5.7109e-94 1.91971e-94 6.09844e-95 1.83488e-95 5.23974e-96 1.42297e-96 3.68197e-97 9.09378e-98 2.14743e-98 4.85616e-99 1.05322e-99 2.1939e-100 4.39501e-101 8.47807e-102 1.57668e-102 2.83003e-103 4.90791e-104 8.23188e-105 1.33663e-105 2.10291e-106 3.20853e-107 4.75133e-108 6.83415e-109 9.55508e-110 1.29947e-110 1.72018e-111 2.21783e-112 2.78675e-113 3.41453e-114 4.08197e-115 4.76372e-116 5.42975e-117 6.0476e-118 6.58505e-119 7.01298e-120 7.30805e-121 7.4548e-122 7.44697e-123 7.28783e-124 6.98963e-125 6.57205e-126 6.05986e-127 5.43987e-128 0 
0 2.60003e-180 5.45299e-179 1.12868e-177 2.31046e-176 4.67705e-175 9.36157e-174 1.8526e-172 3.62427e-171 7.0084e-170 1.33945e-168 2.52984e-167 4.72137e-166 8.70553e-165 1.58571e-163 2.85295e-162 5.06937e-161 8.89493e-160 1.541e-158 2.63554e-157 4.44924e-156 7.41284e-155 1.21871e-153 1.97683e-152 3.16316e-151 4.99211e-150 7.7694e-149 1.19222e-147 1.8035e-146 2.68897e-145 3.95083e-144 5.71926e-143 8.15561e-142 1.14538e-140 1.58392e-139 2.15631e-138 2.88929e-137 3.80955e-136 4.94151e-135 6.30442e-134 7.90902e-133 9.754e-132 1.18225e-130 1.40796e-129 1.64702e-128 1.89196e-127 2.13354e-126 2.36117e-125 2.56364e-124 2.72989e-123 2.84997e-122 2.91602e-121 2.92304e-120 2.8695e-119 2.75761e-118 2.59318e-117 2.38519e-116 2.14488e-115 1.88485e-114 1.61781e-113 1.35562e-112 1.10834e-111 8.8369e-111 6.86691e-110 5.19751e-109 3.82935e-108 2.74449e-107 1.91206e-106 1.29397e-105 8.49955e-105 5.41454e-104 3.34232e-103 1.99739e-102 1.1545e-101 6.44758e-101 3.47544e-100 1.8061e-99 9.03797e-99 4.34952e-98 2.01033e-97 8.9109e-97 3.78216e-96 1.53467e-95 5.94278e-95 2.19213e-94 7.6876e-94 2.55775e-93 8.05578e-93 2.39623e-92 6.71518e-92 1.76842e-91 4.36485e-91 1.00704e-90 2.16607e-90 4.33249e-90 8.0399e-90 1.38167e-89 2.19628e-89 3.2288e-89 4.39593e-89 5.56151e-89 6.5786e-89 7.34516e-89 7.84311e-89 8.13672e-89 8.33088e-89 8.51432e-89 8.72048e-89 8.92682e-89 9.08869e-89 9.18236e-89 9.22687e-89 9.27222e-89 9.36656e-89 9.52787e-89 9.73526e-89 9.93835e-89 1.00736e-88 1.00781e-88 9.89747e-89 9.492e-89 8.84673e-89 7.98808e-89 6.99739e-89 6.00753e-89 5.17591e-89 4.64136e-89 4.48337e-89 4.70137e-89 5.22139e-89 5.924e-89 6.67917e-89 7.37441e-89 7.93184e-89 8.31661e-89 8.53873e-89 8.64501e-89 8.69842e-89 8.75124e-89 8.82537e-89 8.90949e-89 8.97169e-89 8.97783e-89 8.90663e-89 8.75785e-89 8.5539e-89 8.33405e-89 8.14119e-89 8.00643e-89 7.94003e-89 7.93206e-89 7.95912e-89 7.99247e-89 8.0071e-89 7.99213e-89 7.95865e-89 7.93916e-89 7.97697e-89 8.1105e-89 8.3584e-89 8.70862e-89 9.11372e-89 9.49851e-89 9.78271e-89 9.91094e-89 9.8753e-89 9.7219e-89 9.54272e-89 9.45515e-89 9.56785e-89 9.93668e-89 1.05284e-88 1.12155e-88 1.18123e-88 1.21376e-88 1.20789e-88 1.16322e-88 1.09038e-88 1.00721e-88 9.32257e-89 8.78588e-89 8.50771e-89 8.46362e-89 8.59839e-89 8.85537e-89 9.17624e-89 9.48368e-89 9.67584e-89 9.64931e-89 9.34003e-89 8.75495e-89 7.97382e-89 7.12058e-89 6.31952e-89 5.65518e-89 5.14884e-89 4.75822e-89 4.40033e-89 3.99002e-89 3.47783e-89 2.86943e-89 2.21794e-89 1.59628e-89 1.06639e-89 6.60512e-90 3.79408e-90 2.02333e-90 1.00343e-90 4.63716e-91 2.00142e-91 8.08679e-92 3.06631e-92 1.09371e-92 3.67839e-93 1.16916e-93 3.51969e-94 1.00568e-94 2.73276e-95 7.07541e-96 1.74858e-96 4.13177e-97 9.3496e-98 2.02912e-98 4.22955e-99 8.47876e-100 1.6367e-100 3.04593e-101 5.47106e-102 9.49482e-103 1.59368e-103 2.58956e-104 4.07714e-105 6.22528e-106 9.22551e-107 1.32796e-107 1.85806e-108 2.52884e-109 3.3501e-110 4.32261e-111 5.4356e-112 6.66525e-113 7.9743e-114 9.31337e-115 1.06238e-115 1.1842e-116 1.29046e-117 1.37541e-118 1.43441e-119 1.46438e-120 1.46402e-121 1.43388e-122 1.37632e-123 1.29514e-124 1.19517e-125 1.07375e-126 0 
0 5.27509e-179 1.10537e-177 2.28595e-176 4.67536e-175 9.45609e-174 1.89108e-172 3.73909e-171 7.30852e-170 1.41206e-168 2.69641e-167 5.08836e-166 9.48806e-165 1.74796e-163 3.18117e-162 5.71855e-161 1.01525e-159 1.77988e-158 3.08092e-157 5.26477e-156 8.88026e-155 1.47828e-153 2.42832e-152 3.93556e-151 6.29203e-150 9.92175e-149 1.54286e-147 2.36554e-146 3.57541e-145 5.32639e-144 7.81939e-143 1.131e-141 1.61146e-140 2.26127e-139 3.12446e-138 4.25006e-137 5.69005e-136 7.49621e-135 9.71565e-134 1.23852e-132 1.55247e-131 1.91307e-130 2.31689e-129 2.75698e-128 3.22248e-127 3.69874e-126 4.16765e-125 4.60862e-124 4.99981e-123 5.31979e-122 5.54939e-121 5.6735e-120 5.68266e-119 5.57419e-118 5.35262e-117 5.02953e-116 4.62251e-115 4.15358e-114 3.64719e-113 3.12806e-112 2.6191e-111 2.13973e-110 1.70472e-109 1.32369e-108 1.00114e-107 7.37051e-107 5.2785e-106 3.67476e-105 2.48503e-104 1.63112e-103 1.03833e-102 6.40485e-102 3.82484e-101 2.20919e-100 1.23291e-99 6.64113e-99 3.44885e-98 1.72467e-97 8.29435e-97 3.83105e-96 1.69702e-95 7.19817e-95 2.91889e-94 1.12959e-93 4.1642e-93 1.45947e-92 4.85296e-92 1.5276e-91 4.54142e-91 1.27201e-90 3.34809e-90 8.25985e-90 1.90482e-89 4.09539e-89 8.18831e-89 1.519e-88 2.60964e-88 4.14722e-88 6.09572e-88 8.29799e-88 1.04973e-87 1.24166e-87 1.38635e-87 1.48039e-87 1.53585e-87 1.57252e-87 1.60711e-87 1.64595e-87 1.68482e-87 1.71534e-87 1.73306e-87 1.74155e-87 1.75021e-87 1.76812e-87 1.79862e-87 1.83779e-87 1.87613e-87 1.90164e-87 1.90248e-87 1.86838e-87 1.79185e-87 1.67006e-87 1.50803e-87 1.32111e-87 1.13436e-87 9.77481e-88 8.76657e-88 8.46874e-88 8.88022e-88 9.86143e-88 1.11871e-87 1.2612e-87 1.39239e-87 1.49759e-87 1.57023e-87 1.6122e-87 1.63231e-87 1.64242e-87 1.65238e-87 1.66631e-87 1.68209e-87 1.69371e-87 1.69476e-87 1.68125e-87 1.65315e-87 1.6147e-87 1.57329e-87 1.53701e-87 1.5117e-87 1.49927e-87 1.49783e-87 1.50296e-87 1.50924e-87 1.51196e-87 1.5091e-87 1.50275e-87 1.49905e-87 1.50616e-87 1.53132e-87 1.57804e-87 1.64404e-87 1.72038e-87 1.7929e-87 1.84647e-87 1.87067e-87 1.86401e-87 1.83518e-87 1.80151e-87 1.78511e-87 1.80644e-87 1.876e-87 1.9875e-87 2.11696e-87 2.22936e-87 2.29059e-87 2.27949e-87 2.19531e-87 2.05807e-87 1.90134e-87 1.76009e-87 1.65891e-87 1.60643e-87 1.59807e-87 1.62343e-87 1.67184e-87 1.7323e-87 1.79023e-87 1.8264e-87 1.82135e-87 1.76299e-87 1.6526e-87 1.50522e-87 1.34419e-87 1.19294e-87 1.06745e-87 9.71754e-88 8.9791e-88 8.30289e-88 7.52834e-88 6.56205e-88 5.41449e-88 4.18568e-88 3.01298e-88 2.01321e-88 1.24726e-88 7.16643e-89 3.82294e-89 1.89656e-89 8.76783e-90 3.78577e-90 1.53032e-90 5.80527e-91 2.07167e-91 6.97105e-92 2.2169e-92 6.67755e-93 1.90906e-93 5.19061e-94 1.34472e-94 3.32534e-95 7.86251e-96 1.78032e-96 3.86632e-97 8.06443e-98 1.61773e-98 3.12493e-99 5.81958e-100 1.04604e-100 1.81665e-101 3.05138e-102 4.96175e-103 7.81772e-104 1.19455e-104 1.77156e-105 2.55195e-106 3.57333e-107 4.86701e-108 6.45249e-109 8.33193e-110 1.04853e-110 1.28672e-111 1.54062e-112 1.80072e-113 2.0557e-114 2.29321e-115 2.50095e-116 2.66768e-117 2.78434e-118 2.84478e-119 2.84633e-120 2.78998e-121 2.68012e-122 2.52407e-123 2.33113e-124 2.09597e-125 0 
0 1.05823e-177 2.21555e-176 4.57783e-175 9.35471e-174 1.89038e-172 3.77722e-171 7.46192e-170 1.45726e-168 2.81311e-167 5.36716e-166 1.01196e-164 1.88534e-163 3.47034e-162 6.31036e-161 1.1334e-159 2.01047e-158 3.52165e-157 6.09067e-156 1.03991e-154 1.75256e-153 2.91498e-152 4.78429e-151 7.74733e-150 1.23757e-148 1.94985e-147 3.02953e-146 4.64105e-145 7.00886e-144 1.04326e-142 1.53028e-141 2.21157e-140 3.14844e-139 4.41438e-138 6.09443e-137 8.28313e-136 1.10805e-134 1.45857e-133 1.88887e-132 2.4059e-131 3.01333e-130 3.71021e-129 4.48975e-128 5.33824e-127 6.23455e-126 7.1502e-125 8.05023e-124 8.89488e-123 9.64219e-122 1.02511e-120 1.06851e-119 1.09154e-118 1.09244e-117 1.07075e-116 1.02738e-115 9.64616e-115 8.85864e-114 7.95381e-113 6.97873e-112 5.98081e-111 5.00385e-110 4.08488e-109 3.25196e-108 2.52319e-107 1.90692e-106 1.40285e-105 1.00393e-104 6.98393e-104 4.71938e-103 3.09544e-102 1.96905e-101 1.21372e-100 7.24291e-100 4.18048e-99 2.33141e-98 1.25495e-97 6.51269e-97 3.25459e-96 1.56416e-95 7.21984e-95 3.19603e-94 1.35477e-93 5.49018e-93 2.12334e-92 7.82282e-92 2.7401e-91 9.10597e-91 2.86473e-90 8.51192e-90 2.38285e-89 6.26882e-89 1.5458e-88 3.56319e-88 7.65771e-88 1.5305e-87 2.83824e-87 4.87464e-87 7.74481e-87 1.13814e-86 1.54911e-86 1.95952e-86 2.31771e-86 2.58782e-86 2.76343e-86 2.86707e-86 2.93554e-86 3.00004e-86 3.0724e-86 3.14482e-86 3.20174e-86 3.23487e-86 3.25088e-86 3.26726e-86 3.30086e-86 3.35792e-86 3.43109e-86 3.50265e-86 3.55026e-86 3.55179e-86 3.48813e-86 3.34526e-86 3.11795e-86 2.81556e-86 2.46676e-86 2.11833e-86 1.82566e-86 1.63759e-86 1.58207e-86 1.65888e-86 1.84199e-86 2.08936e-86 2.35524e-86 2.60005e-86 2.7964e-86 2.93202e-86 3.01045e-86 3.04809e-86 3.06703e-86 3.08559e-86 3.11148e-86 3.14073e-86 3.1622e-86 3.16397e-86 3.13862e-86 3.08614e-86 3.01444e-86 2.93732e-86 2.86982e-86 2.82281e-86 2.7998e-86 2.79724e-86 2.80685e-86 2.81854e-86 2.82355e-86 2.81812e-86 2.80622e-86 2.79927e-86 2.8125e-86 2.85938e-86 2.94646e-86 3.06946e-86 3.21173e-86 3.34688e-86 3.44675e-86 3.49192e-86 3.47962e-86 3.42604e-86 3.36347e-86 3.33309e-86 3.373e-86 3.50274e-86 3.71056e-86 3.95174e-86 4.16109e-86 4.2751e-86 4.25434e-86 4.09745e-86 3.84171e-86 3.54965e-86 3.2864e-86 3.09777e-86 2.99986e-86 2.98416e-86 3.03137e-86 3.12156e-86 3.23422e-86 3.34214e-86 3.4095e-86 3.39998e-86 3.29106e-86 3.08511e-86 2.81009e-86 2.50952e-86 2.22711e-86 1.99267e-86 1.81381e-86 1.67575e-86 1.5494e-86 1.40479e-86 1.2245e-86 1.01044e-86 7.81215e-87 5.62434e-87 3.75881e-87 2.32929e-87 1.33871e-87 7.14352e-88 3.54509e-88 1.63951e-88 7.08191e-89 2.86395e-89 1.08694e-89 3.88073e-90 1.30651e-90 4.1571e-91 1.25285e-91 3.58385e-92 9.74995e-93 2.52742e-93 6.25387e-94 1.47961e-94 3.35245e-95 7.28527e-96 1.52058e-96 3.05235e-97 5.90017e-98 1.09955e-98 1.97777e-99 3.43721e-100 5.77749e-101 9.40137e-102 1.48235e-102 2.26668e-103 3.36406e-104 4.84956e-105 6.7956e-106 9.26281e-107 1.22896e-107 1.58812e-108 2.00009e-109 2.45633e-110 2.94329e-111 3.44288e-112 3.93344e-113 4.39133e-114 4.79288e-115 5.11645e-116 5.34442e-117 5.46476e-118 5.47209e-119 5.36804e-120 5.1608e-121 4.86422e-122 4.49601e-123 4.04569e-124 0 
0 2.09883e-176 4.39039e-175 9.06367e-174 1.85053e-172 3.73628e-171 7.45909e-170 1.47227e-168 2.87277e-167 5.54083e-166 1.05623e-164 1.98978e-163 3.70389e-162 6.81189e-161 1.23759e-159 2.22093e-158 3.93624e-157 6.88905e-156 1.19044e-154 2.03081e-153 3.41964e-152 5.68297e-151 9.31946e-150 1.50785e-148 2.40665e-147 3.78861e-146 5.88151e-145 9.00256e-144 1.35842e-142 2.02031e-141 2.96098e-140 4.27567e-139 6.0819e-138 8.5203e-137 1.17533e-135 1.59612e-134 2.1334e-133 2.80599e-132 3.63082e-131 4.62089e-130 5.78284e-129 7.11446e-128 8.60228e-127 1.02197e-125 1.1926e-124 1.36666e-123 1.53746e-122 1.69741e-121 1.83856e-120 1.95312e-119 2.03419e-118 2.0764e-117 2.07648e-116 2.03365e-115 1.94976e-114 1.82922e-113 1.67858e-112 1.50597e-111 1.32033e-110 1.13066e-109 9.4525e-109 7.71068e-108 6.13381e-107 4.75564e-106 3.59141e-105 2.64011e-104 1.88796e-103 1.31241e-102 8.86211e-102 5.80842e-101 3.69216e-100 2.27421e-99 1.35618e-98 7.82211e-98 4.35926e-97 2.34488e-96 1.21606e-95 6.07292e-95 2.9167e-94 1.3454e-93 5.95184e-93 2.52132e-92 1.02111e-91 3.94672e-91 1.45317e-90 5.087e-90 1.68955e-89 5.3123e-89 1.57758e-88 4.41401e-88 1.16066e-87 2.86065e-87 6.5911e-87 1.41592e-86 2.82883e-86 5.24416e-86 9.00416e-86 1.43022e-85 2.10138e-85 2.85977e-85 3.61711e-85 4.27817e-85 4.77679e-85 5.10111e-85 5.29258e-85 5.41904e-85 5.53798e-85 5.67128e-85 5.8047e-85 5.90965e-85 5.97092e-85 6.00078e-85 6.0314e-85 6.09374e-85 6.19928e-85 6.33443e-85 6.46653e-85 6.55438e-85 6.55717e-85 6.43963e-85 6.1759e-85 5.75636e-85 5.19832e-85 4.5547e-85 3.91184e-85 3.37192e-85 3.02502e-85 2.92267e-85 3.06446e-85 3.40236e-85 3.85883e-85 4.34945e-85 4.8012e-85 5.16358e-85 5.41398e-85 5.55889e-85 5.62855e-85 5.66361e-85 5.69784e-85 5.7454e-85 5.79905e-85 5.83826e-85 5.84115e-85 5.79411e-85 5.69718e-85 5.56498e-85 5.42295e-85 5.29879e-85 5.21244e-85 5.17033e-85 5.16583e-85 5.18365e-85 5.20516e-85 5.21428e-85 5.20413e-85 5.18204e-85 5.16914e-85 5.19346e-85 5.27985e-85 5.44033e-85 5.66702e-85 5.9292e-85 6.17827e-85 6.36237e-85 6.44574e-85 6.42327e-85 6.32481e-85 6.20982e-85 6.15419e-85 6.22804e-85 6.4673e-85 6.8503e-85 7.29463e-85 7.68021e-85 7.89011e-85 7.85173e-85 7.56258e-85 7.09135e-85 6.55318e-85 6.06803e-85 5.72028e-85 5.53964e-85 5.51052e-85 5.59739e-85 5.76355e-85 5.97114e-85 6.16996e-85 6.29398e-85 6.27625e-85 6.07522e-85 5.69524e-85 5.18778e-85 4.63302e-85 4.11158e-85 3.67849e-85 3.34789e-85 3.09265e-85 2.85917e-85 2.59221e-85 2.25957e-85 1.86469e-85 1.44185e-85 1.03822e-85 6.93996e-86 4.30161e-86 2.47292e-86 1.31998e-86 6.55282e-87 3.03162e-87 1.31004e-87 5.30008e-88 2.01243e-88 7.18847e-89 2.42133e-89 7.70834e-90 2.32438e-90 6.65277e-91 1.81096e-91 4.69724e-92 1.163e-92 2.75327e-93 6.24226e-94 1.3574e-94 2.83503e-95 5.69473e-96 1.10153e-96 2.05422e-97 3.69751e-98 6.43049e-99 1.08165e-99 1.76136e-100 2.77922e-101 4.25284e-102 6.3164e-103 9.11233e-104 1.27784e-104 1.74308e-105 2.3144e-106 2.99306e-107 3.77235e-108 4.63639e-109 5.55983e-110 6.50856e-111 7.4417e-112 8.31446e-113 9.08186e-114 9.7026e-115 1.01429e-115 1.03795e-116 1.04017e-117 1.0212e-118 9.82562e-120 9.26839e-121 8.57369e-122 7.72107e-123 0 
0 4.11508e-175 8.60056e-174 1.77399e-172 3.61882e-171 7.30018e-170 1.45614e-168 2.87165e-167 5.59848e-166 1.07887e-164 2.05485e-163 3.8677e-162 7.1934e-161 1.32182e-159 2.39945e-158 4.30228e-157 7.61859e-156 1.33224e-154 2.30019e-153 3.92064e-152 6.59629e-151 1.09529e-149 1.79464e-148 2.90122e-147 4.62668e-146 7.27734e-145 1.1288e-143 1.72637e-142 2.6028e-141 3.86779e-140 5.66395e-139 8.172e-138 1.16146e-136 1.62578e-135 2.24084e-134 3.04059e-133 4.06078e-132 5.33664e-131 6.89973e-130 8.77404e-129 1.09714e-127 1.34869e-126 1.62942e-125 1.93423e-124 2.25536e-123 2.58246e-122 2.90287e-121 3.20234e-120 3.46587e-119 3.67891e-118 3.82859e-117 3.90496e-116 3.90206e-115 3.81858e-114 3.65822e-113 3.4294e-112 3.14455e-111 2.81901e-110 2.46962e-109 2.11325e-108 1.76536e-107 1.43896e-106 1.14383e-105 8.86164e-105 6.68723e-104 4.91226e-103 3.51019e-102 2.43832e-101 1.64529e-100 1.07758e-99 6.84476e-99 4.21307e-98 2.5106e-97 1.44704e-96 8.05875e-96 4.33188e-95 2.24499e-94 1.12038e-93 5.37735e-93 2.4788e-92 1.09587e-91 4.63937e-91 1.87772e-90 7.25316e-90 2.66898e-89 9.33757e-89 3.0995e-88 9.74007e-88 2.89092e-87 8.08448e-87 2.12475e-86 5.23436e-86 1.20549e-85 2.58861e-85 5.16978e-85 9.58067e-85 1.64451e-84 2.61151e-84 3.83627e-84 5.22006e-84 6.60193e-84 7.80824e-84 8.71836e-84 9.31059e-84 9.66038e-84 9.89129e-84 1.01081e-83 1.03509e-83 1.0594e-83 1.07853e-83 1.08973e-83 1.09524e-83 1.1009e-83 1.11234e-83 1.13164e-83 1.15632e-83 1.18043e-83 1.19646e-83 1.19696e-83 1.17551e-83 1.12737e-83 1.05081e-83 9.48982e-84 8.31555e-84 7.1428e-84 6.15794e-84 5.52524e-84 5.3387e-84 5.59753e-84 6.21409e-84 7.04693e-84 7.94206e-84 8.76634e-84 9.42761e-84 9.88473e-84 1.01495e-83 1.02769e-83 1.03411e-83 1.04035e-83 1.04899e-83 1.05872e-83 1.0658e-83 1.06626e-83 1.05763e-83 1.03992e-83 1.01582e-83 9.8996e-84 9.67376e-84 9.51696e-84 9.44077e-84 9.43298e-84 9.46566e-84 9.50483e-84 9.52123e-84 9.50245e-84 9.46194e-84 9.43823e-84 9.48246e-84 9.63984e-84 9.93225e-84 1.03453e-83 1.0823e-83 1.12769e-83 1.16124e-83 1.17646e-83 1.1724e-83 1.15451e-83 1.13362e-83 1.12354e-83 1.13705e-83 1.18068e-83 1.25047e-83 1.33141e-83 1.40163e-83 1.43984e-83 1.43282e-83 1.38013e-83 1.29428e-83 1.19623e-83 1.10782e-83 1.04444e-83 1.01148e-83 1.00614e-83 1.02195e-83 1.05222e-83 1.09004e-83 1.12625e-83 1.14883e-83 1.14556e-83 1.10888e-83 1.03956e-83 9.46977e-84 8.45735e-84 7.50536e-84 6.71428e-84 6.1101e-84 5.64355e-84 5.21696e-84 4.72964e-84 4.12278e-84 3.40254e-84 2.63129e-84 1.895e-84 1.26695e-84 7.85482e-85 4.51679e-85 2.41167e-85 1.19763e-85 5.54276e-86 2.3961e-86 9.69814e-87 3.68401e-87 1.31657e-87 4.43689e-88 1.41323e-88 4.26377e-89 1.22105e-89 3.32574e-90 8.63139e-91 2.13837e-91 5.0655e-92 1.14918e-92 2.50055e-93 5.22602e-94 1.05045e-94 2.03326e-95 3.79437e-96 6.83443e-97 1.18943e-97 2.00212e-98 3.26258e-99 5.15166e-100 7.88894e-101 1.17254e-101 1.6928e-102 2.37562e-103 3.24295e-104 4.3091e-105 5.57687e-106 7.03424e-107 8.65201e-108 1.03832e-108 1.21643e-109 1.39191e-110 1.55637e-111 1.70134e-112 1.81905e-113 1.90309e-114 1.94902e-115 1.95473e-116 1.92062e-117 1.84942e-118 1.74593e-119 1.61636e-120 1.45678e-121 0 
0 7.97501e-174 1.66535e-172 3.43204e-171 6.99507e-170 1.40988e-168 2.80982e-167 5.53645e-166 1.07844e-164 2.07645e-163 3.95148e-162 7.43122e-161 1.38092e-159 2.53534e-158 4.59839e-157 8.23801e-156 1.45757e-154 2.54665e-153 4.39322e-152 7.48184e-151 1.25772e-149 2.08664e-148 3.4161e-147 5.51784e-146 8.79212e-145 1.38176e-143 2.14149e-142 3.27242e-141 4.92964e-140 7.31942e-139 1.07096e-137 1.54391e-136 2.19251e-135 3.06649e-134 4.22311e-133 5.72564e-132 7.64048e-131 1.00329e-129 1.29609e-128 1.64684e-127 2.0576e-126 2.52732e-125 3.05092e-124 3.61874e-123 4.21616e-122 4.82377e-121 5.41796e-120 5.97214e-119 6.45849e-118 6.85006e-117 7.12315e-116 7.25955e-115 7.24848e-114 7.08789e-113 6.78496e-112 6.35563e-111 5.82324e-110 5.21639e-109 4.56638e-108 3.90446e-107 3.25923e-106 2.65463e-105 2.10857e-104 1.63237e-103 1.23091e-102 9.03527e-102 6.45166e-101 4.47831e-100 3.0196e-99 1.97626e-98 1.25442e-97 7.7157e-97 4.59461e-96 2.64635e-95 1.47277e-94 7.91125e-94 4.09722e-93 2.04336e-92 9.80082e-92 4.51494e-91 1.99476e-90 8.43942e-90 3.41361e-89 1.31778e-88 4.84619e-88 1.69447e-87 5.6214e-87 1.76552e-86 5.23738e-86 1.46388e-85 3.84546e-85 9.46893e-85 2.17977e-84 4.67882e-84 9.34074e-84 1.73046e-83 2.96945e-83 4.7144e-83 6.92407e-83 9.42041e-83 1.19132e-82 1.40896e-82 1.5732e-82 1.68012e-82 1.74329e-82 1.78498e-82 1.82406e-82 1.86779e-82 1.91155e-82 1.94604e-82 1.9663e-82 1.97633e-82 1.98667e-82 2.00741e-82 2.04231e-82 2.08688e-82 2.13039e-82 2.1593e-82 2.1602e-82 2.12147e-82 2.03462e-82 1.89648e-82 1.71279e-82 1.50097e-82 1.28946e-82 1.11185e-82 9.97769e-83 9.64157e-83 1.01087e-82 1.1221e-82 1.27233e-82 1.43379e-82 1.58249e-82 1.70179e-82 1.78429e-82 1.83211e-82 1.85516e-82 1.86678e-82 1.87802e-82 1.89354e-82 1.91096e-82 1.92361e-82 1.92431e-82 1.90866e-82 1.87669e-82 1.83325e-82 1.78669e-82 1.74608e-82 1.71794e-82 1.70431e-82 1.70298e-82 1.70891e-82 1.71596e-82 1.71888e-82 1.71544e-82 1.70809e-82 1.70379e-82 1.71174e-82 1.74008e-82 1.79276e-82 1.86716e-82 1.95322e-82 2.03498e-82 2.09545e-82 2.12289e-82 2.11565e-82 2.08351e-82 2.04598e-82 2.02795e-82 2.05239e-82 2.13104e-82 2.25676e-82 2.40252e-82 2.52894e-82 2.5977e-82 2.58502e-82 2.4901e-82 2.33546e-82 2.15885e-82 1.9996e-82 1.88537e-82 1.82594e-82 1.81626e-82 1.84469e-82 1.8992e-82 1.96731e-82 2.03253e-82 2.07317e-82 2.06722e-82 2.00104e-82 1.87602e-82 1.70902e-82 1.52635e-82 1.35452e-82 1.21166e-82 1.1025e-82 1.01818e-82 9.41125e-83 8.53178e-83 7.43719e-83 6.13837e-83 4.74756e-83 3.41965e-83 2.28674e-83 1.41805e-83 8.15644e-84 4.35629e-84 2.16403e-84 1.0019e-84 4.33283e-85 1.75443e-85 6.66749e-86 2.38391e-86 8.03784e-87 2.56152e-87 7.73237e-88 2.2156e-88 6.03806e-89 1.568e-89 3.88695e-90 9.21334e-91 2.0915e-91 4.55389e-92 9.5236e-93 1.91555e-93 3.71025e-94 6.92859e-95 1.24884e-95 2.17494e-96 3.66354e-97 5.97422e-98 9.44014e-99 1.44665e-99 2.15173e-100 3.10874e-101 4.36592e-102 5.96433e-103 7.93109e-104 1.02722e-104 1.29664e-105 1.59606e-106 1.91688e-107 2.24743e-108 2.57362e-109 2.87992e-110 3.15063e-111 3.37124e-112 3.52976e-113 3.6178e-114 3.63127e-115 3.57072e-116 3.44109e-117 3.25113e-118 3.01227e-119 2.71701e-120 0 