# vtk DataFile Version 3.0
Gray-Scott Simulation Output
ASCII
DATASET STRUCTURED_POINTS
DIMENSIONS 256 256 1
SPACING 1.0 1.0 1.0
ORIGIN 0 0 0
POINT_DATA 65536
SCALARS u double
LOOKUP_TABLE default
0 0 0 0 0 0 0 0 0 0 0 0 0 0 0 0 0 0 0 0 0 0 0 0 0 0 0 0 0 0 0 0 0 0 0 0 0 0 0 0 0 0 0 0 0 0 0 0 0 0 0 0 0 0 0 0 0 0 0 0 0 0 0 0 0 0 0 0 0 0 0 0 0 0 0 0 0 0 0 0 0 0 0 0 0 0 0 0 0 0 0 0 0 0 0 0 0 0 0 0 0 0 0 0 0 0 0 0 0 0 0 0 0 0 0 0 0 0 0 0 0 0 0 0 0 0 0 0 0 0 0 0 0 0 0 0 0 0 0 0 0 0 0 0 0 0 0 0 0 0 0 0 0 0 0 0 0 0 0 0 0 0 0 0 0 0 0 0 0 0 0 0 0 0 0 0 0 0 0 0 0 0 0 0 0 0 0 0 0 0 0 0 0 0 0 0 0 0 0 0 0 0 0 0 0 0 0 0 0 0 0 0 0 0 0 0 0 0 0 0 0 0 0 0 0 0 0 0 0 0 0 0 0 0 0 0 0 0 0 0 0 0 0 0 0 0 0 0 0 0 0 0 0 0 0 0 
0 1.70218e-85 7.30423e-85 2.94238e-84 1.1711e-83 4.61863e-83 1.80508e-82 6.99071e-82 2.6826e-81 1.01992e-80 3.84173e-80 1.43351e-79 5.29855e-79 1.93982e-78 7.03367e-78 2.52571e-77 8.98115e-77 3.16222e-76 1.10237e-75 3.80455e-75 1.29982e-74 4.3957e-74 1.4713e-73 4.87378e-73 1.59765e-72 5.18212e-72 1.66306e-71 5.28004e-71 1.65828e-70 5.1514e-70 1.5827e-69 4.8088e-69 1.44475e-68 4.29164e-68 1.26033e-67 3.65871e-67 1.04981e-66 2.97703e-66 8.34257e-66 2.31e-65 6.31929e-65 1.70774e-64 4.5585e-64 1.20176e-63 3.12863e-63 8.04235e-63 2.04103e-62 5.1133e-62 1.26439e-61 3.08559e-61 7.43044e-61 1.76545e-60 4.1381e-60 9.56748e-60 2.18165e-59 4.90577e-59 1.08769e-58 2.37749e-58 5.12257e-58 1.08782e-57 2.27646e-57 4.69399e-57 9.53547e-57 1.90809e-56 3.76058e-56 7.29875e-56 1.39483e-55 2.62431e-55 4.86041e-55 8.86004e-55 1.58946e-54 2.80582e-54 4.87318e-54 8.32642e-54 1.39942e-53 2.3133e-53 3.76072e-53 6.01206e-53 9.45043e-53 1.46058e-52 2.21928e-52 3.31508e-52 4.86804e-52 7.02717e-52 9.97178e-52 1.39103e-51 1.9076e-51 2.57189e-51 3.40932e-51 4.44412e-51 5.69733e-51 7.18463e-51 8.91424e-51 1.0885e-50 1.3085e-50 1.54911e-50 1.80691e-50 2.07753e-50 2.35585e-50 2.63633e-50 2.91333e-50 3.18149e-50 3.43599e-50 3.67287e-50 3.88913e-50 4.0828e-50 4.25287e-50 4.39917e-50 4.52217e-50 4.62274e-50 4.70195e-50 4.76088e-50 4.80053e-50 4.82177e-50 4.82537e-50 4.81215e-50 4.78306e-50 4.73942e-50 4.68301e-50 4.6162e-50 4.54195e-50 4.4638e-50 4.38565e-50 4.31161e-50 4.24567e-50 4.19139e-50 4.15164e-50 4.12836e-50 4.1224e-50 4.13348e-50 4.16024e-50 4.20041e-50 4.25102e-50 4.30871e-50 4.36999e-50 4.43149e-50 4.49025e-50 4.54382e-50 4.59041e-50 4.62888e-50 4.65877e-50 4.68017e-50 4.69369e-50 4.70031e-50 4.70126e-50 4.69795e-50 4.69185e-50 4.68441e-50 4.67701e-50 4.6709e-50 4.66718e-50 4.66678e-50 4.67045e-50 4.67875e-50 4.69203e-50 4.71047e-50 4.73407e-50 4.76266e-50 4.7959e-50 4.83335e-50 4.87446e-50 4.91858e-50 4.96503e-50 5.01303e-50 5.06176e-50 5.11034e-50 5.15775e-50 5.20291e-50 5.2446e-50 5.28155e-50 5.31245e-50 5.33604e-50 5.35123e-50 5.35717e-50 5.35336e-50 5.33969e-50 5.31642e-50 5.28419e-50 5.24381e-50 5.19622e-50 5.14223e-50 5.08243e-50 5.01701e-50 4.94574e-50 4.86792e-50 4.78245e-50 4.68799e-50 4.58302e-50 4.46609e-50 4.33593e-50 4.19161e-50 4.03261e-50 3.8589e-50 3.67094e-50 3.4697e-50 3.25661e-50 3.03356e-50 2.80282e-50 2.56701e-50 2.32903e-50 2.09198e-50 1.85905e-50 1.63339e-50 1.41803e-50 1.21564e-50 1.02849e-50 8.58291e-51 7.06139e-51 5.72493e-51 4.57194e-51 3.59521e-51 2.78297e-51 2.12e-51 1.58896e-51 1.17155e-51 8.49598e-52 6.05932e-52 4.24968e-52 2.9308e-52 1.98748e-52 1.32526e-52 8.6893e-53 5.60233e-53 3.55199e-53 2.21472e-53 1.35812e-53 8.19162e-54 4.86013e-54 2.83672e-54 1.629e-54 9.20468e-55 5.11835e-55 2.80115e-55 1.50898e-55 8.00246e-56 4.17844e-56 2.14839e-56 1.08787e-56 5.42578e-57 2.66582e-57 1.29045e-57 6.15529e-58 2.89345e-58 1.34061e-58 6.123e-59 2.75716e-59 1.2242e-59 5.36039e-60 2.31499e-60 9.86196e-61 4.14453e-61 1.71789e-61 7.00864e-62 2.77434e-62 9.59312e-63 0 
0 7.29136e-85 3.12901e-84 1.26057e-83 5.01768e-83 1.97906e-82 7.73545e-82 2.99608e-81 1.14983e-80 4.37212e-80 1.64702e-79 6.14645e-79 2.27213e-78 8.31941e-78 3.01696e-77 1.0835e-76 3.85335e-76 1.35694e-75 4.7311e-75 1.63307e-74 5.58025e-74 1.88743e-73 6.31855e-73 2.09342e-72 6.86358e-72 2.22668e-71 7.14726e-71 2.26963e-70 7.12956e-70 2.21524e-69 6.80749e-69 2.0688e-68 6.21687e-68 1.84715e-67 5.4258e-67 1.57548e-66 4.5217e-66 1.28258e-65 3.59511e-65 9.95719e-65 2.72465e-64 7.36516e-64 1.96654e-63 5.18585e-63 1.35046e-62 3.47247e-62 8.81526e-62 2.20911e-61 5.46428e-61 1.3339e-60 3.2132e-60 7.63689e-60 1.79062e-59 4.14135e-59 9.44654e-59 2.1249e-58 4.71283e-58 1.03048e-57 2.22105e-57 4.71817e-57 9.87701e-57 2.0373e-56 4.14002e-56 8.28719e-56 1.63384e-55 3.17211e-55 6.06408e-55 1.1413e-54 2.11446e-54 3.85567e-54 6.91909e-54 1.22178e-53 2.12263e-53 3.6278e-53 6.09892e-53 1.00845e-52 1.63985e-52 2.62217e-52 4.12276e-52 6.37312e-52 9.68557e-52 1.44705e-51 2.12526e-51 3.06832e-51 4.35456e-51 6.07505e-51 8.33169e-51 1.12336e-50 1.48918e-50 1.94118e-50 2.48851e-50 3.13798e-50 3.89311e-50 4.75331e-50 5.71328e-50 6.76279e-50 7.88683e-50 9.06619e-50 1.02785e-49 1.14994e-49 1.27044e-49 1.387e-49 1.49753e-49 1.60031e-49 1.69406e-49 1.77792e-49 1.85148e-49 1.91469e-49 1.96776e-49 2.01109e-49 2.04517e-49 2.07047e-49 2.08744e-49 2.09646e-49 2.09787e-49 2.09202e-49 2.07932e-49 2.06034e-49 2.03584e-49 2.00684e-49 1.97463e-49 1.94073e-49 1.90684e-49 1.87474e-49 1.84615e-49 1.82261e-49 1.80538e-49 1.7953e-49 1.79272e-49 1.79753e-49 1.80914e-49 1.82656e-49 1.84851e-49 1.87352e-49 1.90007e-49 1.92672e-49 1.95218e-49 1.97538e-49 1.99555e-49 2.0122e-49 2.02513e-49 2.03437e-49 2.04021e-49 2.04305e-49 2.04344e-49 2.04198e-49 2.03932e-49 2.03608e-49 2.03286e-49 2.0302e-49 2.02858e-49 2.02839e-49 2.02997e-49 2.03355e-49 2.0393e-49 2.04728e-49 2.05749e-49 2.06986e-49 2.08425e-49 2.10046e-49 2.11826e-49 2.13737e-49 2.15748e-49 2.17826e-49 2.19937e-49 2.22042e-49 2.24096e-49 2.26053e-49 2.2786e-49 2.29463e-49 2.30803e-49 2.31826e-49 2.32486e-49 2.32745e-49 2.32581e-49 2.3199e-49 2.30983e-49 2.29588e-49 2.2784e-49 2.25781e-49 2.23445e-49 2.20858e-49 2.1803e-49 2.14949e-49 2.11586e-49 2.07894e-49 2.03814e-49 1.99279e-49 1.94227e-49 1.88603e-49 1.82364e-49 1.75488e-49 1.67972e-49 1.59835e-49 1.51119e-49 1.41884e-49 1.3221e-49 1.22196e-49 1.11954e-49 1.0161e-49 9.1299e-50 8.11598e-50 7.13311e-50 6.19442e-50 5.31177e-50 4.49511e-50 3.75206e-50 3.0875e-50 2.50355e-50 1.9996e-50 1.57257e-50 1.21737e-50 9.27405e-51 6.95108e-51 5.12498e-51 3.71644e-51 2.65039e-51 1.85867e-51 1.28169e-51 8.69046e-52 5.79394e-52 3.79826e-52 2.44843e-52 1.55203e-52 9.67505e-53 5.93162e-53 3.57682e-53 2.12161e-53 1.23799e-53 7.10726e-54 4.01482e-54 2.23183e-54 1.22107e-54 6.57588e-55 3.48627e-55 1.81977e-55 9.35357e-56 4.73481e-56 2.36075e-56 1.15952e-56 5.61111e-57 2.67558e-57 1.25732e-57 5.82361e-58 2.65898e-58 1.19695e-58 5.31288e-59 2.32561e-59 1.00405e-59 4.27597e-60 1.79644e-60 7.44395e-61 3.03609e-61 1.2015e-61 4.15365e-62 0 
0 2.93137e-84 1.25807e-83 5.06881e-83 2.01783e-82 7.95956e-82 3.11145e-81 1.20526e-80 4.62606e-80 1.75924e-79 6.6281e-79 2.47384e-78 9.14621e-78 3.34937e-77 1.2148e-76 4.36348e-76 1.55207e-75 5.46646e-75 1.90626e-74 6.58114e-74 2.2492e-73 7.609e-73 2.54776e-72 8.44279e-72 2.76865e-71 8.98397e-71 2.88433e-70 9.16131e-70 2.87849e-69 8.94595e-69 2.74978e-68 8.35869e-68 2.51248e-67 7.46699e-67 2.19394e-66 6.37224e-66 1.82938e-65 5.19051e-65 1.45534e-64 4.032e-64 1.10364e-63 2.98424e-63 7.97063e-63 2.10257e-62 5.47718e-62 1.40883e-61 3.57769e-61 8.96884e-61 2.21924e-60 5.41939e-60 1.30593e-59 3.10497e-59 7.28292e-59 1.68502e-58 3.84504e-58 8.65232e-58 1.91974e-57 4.19922e-57 9.05428e-57 1.92414e-56 4.02957e-56 8.31492e-56 1.69034e-55 3.38491e-55 6.676e-55 1.29665e-54 2.47973e-54 4.66878e-54 8.65289e-54 1.57841e-53 2.83351e-53 5.00517e-53 8.69859e-53 1.48718e-52 2.50098e-52 4.1366e-52 6.72853e-52 1.07621e-51 1.69253e-51 2.61702e-51 3.97812e-51 5.94464e-51 8.7324e-51 1.26093e-50 1.78976e-50 2.49717e-50 3.42506e-50 4.61828e-50 6.12238e-50 7.98066e-50 1.02306e-49 1.28999e-49 1.60027e-49 1.95362e-49 2.34782e-49 2.77862e-49 3.23978e-49 3.72337e-49 4.22014e-49 4.72011e-49 5.21316e-49 5.68967e-49 6.14111e-49 6.56046e-49 6.94248e-49 7.2838e-49 7.5828e-49 7.83936e-49 8.05446e-49 8.22982e-49 8.36747e-49 8.46945e-49 8.53758e-49 8.57346e-49 8.57849e-49 8.55406e-49 8.50186e-49 8.42417e-49 8.32408e-49 8.20573e-49 8.07433e-49 7.93609e-49 7.79791e-49 7.66701e-49 7.55045e-49 7.45452e-49 7.38429e-49 7.34319e-49 7.33272e-49 7.35236e-49 7.39972e-49 7.47076e-49 7.56024e-49 7.66218e-49 7.7704e-49 7.87897e-49 7.98264e-49 8.0771e-49 8.15919e-49 8.22691e-49 8.27945e-49 8.317e-49 8.34064e-49 8.35209e-49 8.35357e-49 8.34755e-49 8.33662e-49 8.32335e-49 8.31015e-49 8.29926e-49 8.29259e-49 8.2918e-49 8.29818e-49 8.31272e-49 8.33606e-49 8.3685e-49 8.41004e-49 8.46037e-49 8.51893e-49 8.58491e-49 8.65734e-49 8.73511e-49 8.81698e-49 8.90162e-49 8.98758e-49 9.07328e-49 9.15697e-49 9.23671e-49 9.31038e-49 9.37569e-49 9.43035e-49 9.47212e-49 9.49906e-49 9.50967e-49 9.50307e-49 9.47904e-49 9.4381e-49 9.38132e-49 9.31022e-49 9.22643e-49 9.13144e-49 9.02628e-49 8.91134e-49 8.78621e-49 8.64967e-49 8.49979e-49 8.33414e-49 8.15008e-49 7.94498e-49 7.71657e-49 7.46313e-49 7.18367e-49 6.87805e-49 6.54699e-49 6.19209e-49 5.8158e-49 5.42135e-49 5.01267e-49 4.59435e-49 4.17151e-49 3.74966e-49 3.3345e-49 2.93173e-49 2.54678e-49 2.18456e-49 1.84922e-49 1.54392e-49 1.27074e-49 1.03059e-49 8.23255e-50 6.47515e-50 5.01301e-50 3.81913e-50 2.86255e-50 2.1105e-50 1.53038e-50 1.09131e-50 7.65238e-51 5.27621e-51 3.57696e-51 2.38435e-51 1.56277e-51 1.00717e-51 6.38287e-52 3.97794e-52 2.43817e-52 1.46982e-52 8.71576e-53 5.08423e-53 2.91792e-53 1.64777e-53 9.15686e-54 5.00814e-54 2.69613e-54 1.42887e-54 7.4558e-55 3.83089e-55 1.9385e-55 9.66174e-56 4.74378e-56 2.29475e-56 1.09381e-56 5.13821e-57 2.37903e-57 1.08584e-57 4.88614e-58 2.16802e-58 9.48669e-59 4.09427e-59 1.74303e-59 7.32037e-60 3.03231e-60 1.23634e-60 4.89117e-61 1.69049e-61 0 
0 1.16435e-83 4.99753e-83 2.01373e-82 8.01726e-82 3.16284e-81 1.23652e-80 4.7904e-80 1.8389e-79 6.99403e-79 2.63543e-78 9.83775e-78 3.63771e-77 1.33235e-76 4.83311e-76 1.7363e-75 6.17699e-75 2.17594e-74 7.58928e-74 2.6206e-73 8.95801e-73 3.03107e-72 1.01512e-71 3.36461e-71 1.1036e-70 3.58185e-70 1.15022e-69 3.65424e-69 1.14844e-68 3.57008e-68 1.09764e-67 3.33744e-67 1.00345e-66 2.98302e-66 8.76713e-66 2.54712e-65 7.31456e-65 2.07599e-64 5.82256e-64 1.61364e-63 4.41826e-63 1.19509e-62 3.19303e-62 8.42574e-62 2.19566e-61 5.64961e-61 1.43522e-60 3.59922e-60 8.90914e-60 2.17643e-59 5.24661e-59 1.24791e-58 2.92818e-58 6.77749e-58 1.54716e-57 3.48289e-57 7.73078e-57 1.69171e-56 3.64911e-56 7.75796e-56 1.62535e-55 3.35523e-55 6.82364e-55 1.36699e-54 2.69718e-54 5.24072e-54 1.00264e-53 1.8885e-53 3.50142e-53 6.38954e-53 1.14746e-52 2.02764e-52 3.52513e-52 6.02891e-52 1.01422e-51 1.67805e-51 2.73033e-51 4.36836e-51 6.87192e-51 1.06282e-50 1.61597e-50 2.41531e-50 3.54867e-50 5.12502e-50 7.27546e-50 1.01523e-49 1.3926e-49 1.87786e-49 2.48953e-49 3.24516e-49 4.15992e-49 5.24498e-49 6.50594e-49 7.9415e-49 9.54242e-49 1.12912e-48 1.31623e-48 1.51232e-48 1.71363e-48 1.91608e-48 2.11556e-48 2.30817e-48 2.49045e-48 2.65959e-48 2.81348e-48 2.95079e-48 3.07091e-48 3.17383e-48 3.25997e-48 3.33009e-48 3.38501e-48 3.4256e-48 3.4526e-48 3.46668e-48 3.46839e-48 3.4583e-48 3.43708e-48 3.40564e-48 3.3652e-48 3.31744e-48 3.26445e-48 3.2087e-48 3.15299e-48 3.10023e-48 3.05324e-48 3.01458e-48 2.98628e-48 2.96973e-48 2.96552e-48 2.97345e-48 2.99255e-48 3.02119e-48 3.05726e-48 3.09834e-48 3.14193e-48 3.18566e-48 3.22741e-48 3.26543e-48 3.29845e-48 3.32568e-48 3.34679e-48 3.36186e-48 3.37133e-48 3.37589e-48 3.37644e-48 3.37397e-48 3.36953e-48 3.36415e-48 3.35881e-48 3.3544e-48 3.35169e-48 3.35135e-48 3.3539e-48 3.35974e-48 3.36911e-48 3.38215e-48 3.39886e-48 3.4191e-48 3.44266e-48 3.46921e-48 3.49835e-48 3.52965e-48 3.5626e-48 3.59667e-48 3.63128e-48 3.66578e-48 3.69949e-48 3.73161e-48 3.7613e-48 3.78762e-48 3.80966e-48 3.82651e-48 3.8374e-48 3.8417e-48 3.83907e-48 3.82942e-48 3.81295e-48 3.79011e-48 3.76151e-48 3.72782e-48 3.68963e-48 3.64737e-48 3.6012e-48 3.55096e-48 3.49615e-48 3.43601e-48 3.36956e-48 3.29571e-48 3.21341e-48 3.12174e-48 3.01997e-48 2.90771e-48 2.78487e-48 2.65172e-48 2.50889e-48 2.35733e-48 2.19832e-48 2.03344e-48 1.86452e-48 1.69362e-48 1.52297e-48 1.35488e-48 1.19168e-48 1.03557e-48 8.88573e-49 7.52392e-49 6.28339e-49 5.17277e-49 4.19598e-49 3.35236e-49 2.63704e-49 2.04174e-49 1.55556e-49 1.16595e-49 8.59616e-50 6.23299e-50 4.44436e-50 3.11609e-50 2.14821e-50 1.45613e-50 9.70452e-51 6.3593e-51 4.0975e-51 2.59612e-51 1.61753e-51 9.91141e-52 5.97323e-52 3.54091e-52 2.06489e-52 1.18468e-52 6.68767e-53 3.71512e-53 2.03118e-53 1.09308e-53 5.79091e-54 3.02054e-54 1.5514e-54 7.84742e-55 3.90975e-55 1.9189e-55 9.27884e-56 4.42115e-56 2.07604e-56 9.60852e-57 4.38384e-57 1.97193e-57 8.74631e-58 3.82572e-58 1.65049e-58 7.02395e-59 2.94884e-59 1.22106e-59 4.9768e-60 1.96826e-60 6.80096e-61 0 
0 4.58248e-83 1.96704e-82 7.92692e-82 3.1563e-81 1.24532e-80 4.8692e-80 1.88661e-79 7.24311e-79 2.75521e-78 1.03834e-77 3.87657e-77 1.43366e-76 5.25174e-76 1.90539e-75 6.8463e-75 2.43604e-74 8.58287e-74 2.9941e-73 1.03407e-72 3.53548e-72 1.19652e-71 4.00805e-71 1.32876e-70 4.35933e-70 1.41519e-69 4.54563e-69 1.44449e-68 4.54083e-68 1.41194e-67 4.34222e-67 1.32063e-66 3.97176e-66 1.18105e-65 3.47213e-65 1.00906e-64 2.8986e-64 8.22926e-64 2.30881e-63 6.40059e-63 1.75311e-62 4.74357e-62 1.26782e-61 3.34669e-61 8.72423e-61 2.24564e-60 5.70689e-60 1.4317e-59 3.54524e-59 8.66408e-59 2.08943e-58 4.97168e-58 1.16706e-57 2.70234e-57 6.17142e-57 1.38985e-56 3.08627e-56 6.75644e-56 1.45802e-55 3.10103e-55 6.49963e-55 1.3423e-54 2.73103e-54 5.47343e-54 1.08041e-53 2.10014e-53 4.01962e-53 7.57414e-53 1.40487e-52 2.56469e-52 4.60757e-52 8.14499e-52 1.41657e-51 2.42358e-51 4.07851e-51 6.75027e-51 1.09868e-50 1.75835e-50 2.76687e-50 4.28042e-50 6.50978e-50 9.73206e-50 1.43016e-49 2.06581e-49 2.93306e-49 4.09336e-49 5.61538e-49 7.57261e-49 1.00395e-48 1.30868e-48 1.67752e-48 2.11494e-48 2.62314e-48 3.20152e-48 3.84628e-48 4.55026e-48 5.30308e-48 6.09157e-48 6.90045e-48 7.71328e-48 8.51347e-48 9.28533e-48 1.0015e-47 1.06913e-47 1.13058e-47 1.18533e-47 1.23316e-47 1.27406e-47 1.30825e-47 1.33602e-47 1.35773e-47 1.37373e-47 1.38433e-47 1.38979e-47 1.39034e-47 1.38621e-47 1.37765e-47 1.36503e-47 1.34883e-47 1.32972e-47 1.30853e-47 1.28625e-47 1.26398e-47 1.24289e-47 1.22411e-47 1.20866e-47 1.19736e-47 1.19075e-47 1.18907e-47 1.19224e-47 1.19988e-47 1.21133e-47 1.22574e-47 1.24215e-47 1.25957e-47 1.27703e-47 1.29369e-47 1.30886e-47 1.32203e-47 1.33288e-47 1.34129e-47 1.34729e-47 1.35105e-47 1.35285e-47 1.35304e-47 1.35204e-47 1.35025e-47 1.34809e-47 1.34595e-47 1.34418e-47 1.34309e-47 1.34294e-47 1.34395e-47 1.34627e-47 1.35e-47 1.3552e-47 1.36186e-47 1.36994e-47 1.37933e-47 1.38992e-47 1.40155e-47 1.41403e-47 1.42718e-47 1.44078e-47 1.45459e-47 1.46836e-47 1.48182e-47 1.49465e-47 1.50651e-47 1.51703e-47 1.52584e-47 1.53258e-47 1.53694e-47 1.53867e-47 1.53763e-47 1.53379e-47 1.52723e-47 1.51812e-47 1.50671e-47 1.49328e-47 1.47806e-47 1.46123e-47 1.44284e-47 1.42285e-47 1.40105e-47 1.37713e-47 1.3507e-47 1.32134e-47 1.28861e-47 1.25214e-47 1.21164e-47 1.16694e-47 1.118e-47 1.06492e-47 1.00794e-47 9.47428e-48 8.83888e-48 8.17943e-48 7.5032e-48 6.81842e-48 6.13399e-48 5.45922e-48 4.80348e-48 4.17576e-48 3.58423e-48 3.03584e-48 2.53598e-48 2.08822e-48 1.69423e-48 1.35381e-48 1.06507e-48 8.24703e-49 6.28354e-49 4.70981e-49 3.4723e-49 2.51759e-49 1.79499e-49 1.25838e-49 8.67397e-50 5.87849e-50 3.91703e-50 2.56625e-50 1.65312e-50 1.04713e-50 6.5224e-51 3.99543e-51 2.40715e-51 1.42649e-51 8.31583e-52 4.76935e-52 2.69141e-52 1.49458e-52 8.16832e-53 4.39414e-53 2.32702e-53 1.2133e-53 6.2293e-54 3.1497e-54 1.56862e-54 7.69568e-55 3.71976e-55 1.77167e-55 8.31593e-56 3.84731e-56 1.75462e-56 7.88949e-57 3.49793e-57 1.52943e-57 6.59575e-58 2.80586e-58 1.17753e-58 4.87411e-59 1.98587e-59 7.8512e-60 2.71212e-60 0 
0 1.78719e-82 7.67231e-82 3.09218e-81 1.23137e-80 4.85897e-80 1.9001e-79 7.36305e-79 2.82722e-78 1.0756e-77 4.05415e-77 1.51382e-76 5.5994e-76 2.05149e-75 7.44431e-75 2.6753e-74 9.52091e-74 3.35512e-73 1.17065e-72 4.04388e-72 1.38288e-71 4.68112e-71 1.5684e-70 5.20076e-70 1.70664e-69 5.54167e-69 1.78043e-68 5.6592e-68 1.77946e-67 5.53457e-67 1.70255e-66 5.17954e-66 1.55817e-65 4.63478e-65 1.36297e-64 3.96225e-64 1.13854e-63 3.23342e-63 9.07469e-63 2.51658e-62 6.89522e-62 1.86636e-61 4.99003e-61 1.31771e-60 3.4363e-60 8.84844e-60 2.24954e-59 5.64567e-59 1.39856e-58 3.41925e-58 8.2492e-58 1.96366e-57 4.61145e-57 1.06824e-56 2.4406e-56 5.49878e-56 1.22157e-55 2.67542e-55 5.77598e-55 1.22902e-54 2.57711e-54 5.32458e-54 1.08381e-53 2.17309e-53 4.29136e-53 8.34536e-53 1.59797e-52 3.01232e-52 5.58968e-52 1.02086e-51 1.83476e-51 3.24467e-51 5.64526e-51 9.66202e-51 1.62656e-50 2.69303e-50 4.38464e-50 7.01952e-50 1.10489e-49 1.70977e-49 2.60094e-49 3.88929e-49 5.71663e-49 8.25899e-49 1.1728e-48 1.63696e-48 2.24586e-48 3.02884e-48 4.01568e-48 5.23455e-48 6.70965e-48 8.45864e-48 1.04901e-47 1.28013e-47 1.53767e-47 1.81873e-47 2.11912e-47 2.43354e-47 2.75586e-47 3.07948e-47 3.39777e-47 3.70447e-47 3.99408e-47 4.26214e-47 4.50538e-47 4.7218e-47 4.91053e-47 5.07169e-47 5.20613e-47 5.31512e-47 5.40014e-47 5.4626e-47 5.50377e-47 5.52471e-47 5.52633e-47 5.50951e-47 5.47528e-47 5.42504e-47 5.36072e-47 5.28489e-47 5.20085e-47 5.11251e-47 5.02426e-47 4.94069e-47 4.86628e-47 4.80507e-47 4.76028e-47 4.7341e-47 4.72747e-47 4.74007e-47 4.77035e-47 4.81572e-47 4.87282e-47 4.93783e-47 5.00679e-47 5.07592e-47 5.14186e-47 5.20187e-47 5.25395e-47 5.29685e-47 5.33005e-47 5.35369e-47 5.36847e-47 5.37551e-47 5.37622e-47 5.37217e-47 5.36503e-47 5.35641e-47 5.34788e-47 5.34082e-47 5.33646e-47 5.33585e-47 5.33981e-47 5.34896e-47 5.36371e-47 5.38425e-47 5.41057e-47 5.44249e-47 5.47964e-47 5.52152e-47 5.56751e-47 5.6169e-47 5.66891e-47 5.72271e-47 5.77738e-47 5.8319e-47 5.88519e-47 5.936e-47 5.98297e-47 6.02466e-47 6.05959e-47 6.08633e-47 6.10363e-47 6.11053e-47 6.10646e-47 6.09129e-47 6.06534e-47 6.02934e-47 5.98425e-47 5.93116e-47 5.87102e-47 5.80454e-47 5.73197e-47 5.65309e-47 5.56711e-47 5.47281e-47 5.36865e-47 5.25291e-47 5.12388e-47 4.98007e-47 4.82031e-47 4.6439e-47 4.45063e-47 4.24088e-47 4.01552e-47 3.77601e-47 3.52429e-47 3.2628e-47 2.9944e-47 2.72233e-47 2.45014e-47 2.18154e-47 1.92028e-47 1.66997e-47 1.43391e-47 1.2149e-47 1.01515e-47 8.36116e-48 6.78502e-48 5.4226e-48 4.26659e-48 3.30399e-48 2.51748e-48 1.88699e-48 1.39115e-48 1.00859e-48 7.19041e-49 5.04025e-49 3.4737e-49 2.35377e-49 1.56808e-49 1.02709e-49 6.61468e-50 4.18877e-50 2.60837e-50 1.59733e-50 9.62044e-51 5.69922e-51 3.32124e-51 1.90414e-51 1.07413e-51 5.96258e-52 3.25746e-52 1.75166e-52 9.27262e-53 4.83276e-53 2.48021e-53 1.25354e-53 6.24036e-54 3.06026e-54 1.47858e-54 7.03937e-55 3.30279e-55 1.52739e-55 6.963e-56 3.12956e-56 1.38698e-56 6.06197e-57 2.61321e-57 1.11123e-57 4.66166e-58 1.92884e-58 7.85578e-59 3.10472e-59 1.0722e-59 0 
0 6.90668e-82 2.96529e-81 1.19524e-80 4.76028e-80 1.87864e-79 7.34736e-79 2.84756e-78 1.09354e-77 4.16094e-77 1.56858e-76 5.858e-76 2.16715e-75 7.94127e-75 2.88218e-74 1.03597e-73 3.68753e-73 1.29972e-72 4.53582e-72 1.56717e-71 5.36037e-71 1.81491e-70 6.0822e-70 2.01731e-69 6.62141e-69 2.15059e-68 6.91118e-68 2.19733e-67 6.91106e-67 2.1501e-66 6.61602e-66 2.01333e-65 6.05854e-65 1.80266e-64 5.30281e-64 1.54205e-63 4.4325e-63 1.25923e-62 3.53527e-62 9.80735e-62 2.68809e-61 7.27862e-61 1.94678e-60 5.14276e-60 1.34163e-59 3.45604e-59 8.78977e-59 2.20686e-58 5.46911e-58 1.33767e-57 3.22858e-57 7.68867e-57 1.80638e-56 4.18628e-56 9.5686e-56 2.15681e-55 4.79355e-55 1.05033e-54 2.2686e-54 4.82936e-54 1.01312e-53 2.09417e-53 4.26459e-53 8.55459e-53 1.69011e-52 3.28821e-52 6.29907e-52 1.18796e-51 2.20535e-51 4.02943e-51 7.24502e-51 1.28177e-50 2.231e-50 3.81991e-50 6.43309e-50 1.06549e-49 1.73537e-49 2.77913e-49 4.37579e-49 6.7733e-49 1.03064e-48 1.54154e-48 2.26631e-48 3.27484e-48 4.65114e-48 6.49279e-48 8.90878e-48 1.20155e-47 1.59309e-47 2.07664e-47 2.66175e-47 3.35534e-47 4.16073e-47 5.07669e-47 6.09693e-47 7.20977e-47 8.39847e-47 9.64183e-47 1.09154e-46 1.21931e-46 1.34484e-46 1.46567e-46 1.57963e-46 1.68497e-46 1.78041e-46 1.8652e-46 1.93901e-46 2.00192e-46 2.05431e-46 2.09668e-46 2.12966e-46 2.1538e-46 2.16964e-46 2.17757e-46 2.17798e-46 2.17118e-46 2.1576e-46 2.13777e-46 2.11243e-46 2.0826e-46 2.04956e-46 2.01484e-46 1.98016e-46 1.94732e-46 1.91809e-46 1.89404e-46 1.87644e-46 1.86616e-46 1.86357e-46 1.86853e-46 1.88043e-46 1.89826e-46 1.92069e-46 1.94622e-46 1.97329e-46 2.00042e-46 2.0263e-46 2.04984e-46 2.07025e-46 2.08706e-46 2.10005e-46 2.10929e-46 2.11506e-46 2.11778e-46 2.11802e-46 2.11641e-46 2.11358e-46 2.11017e-46 2.1068e-46 2.10401e-46 2.10229e-46 2.10203e-46 2.10357e-46 2.10715e-46 2.11292e-46 2.12097e-46 2.13129e-46 2.1438e-46 2.15836e-46 2.17478e-46 2.19282e-46 2.21219e-46 2.23259e-46 2.2537e-46 2.27515e-46 2.29655e-46 2.31746e-46 2.33741e-46 2.35586e-46 2.37224e-46 2.38597e-46 2.39649e-46 2.4033e-46 2.40603e-46 2.40445e-46 2.39851e-46 2.38834e-46 2.37423e-46 2.35656e-46 2.33575e-46 2.3122e-46 2.28617e-46 2.25778e-46 2.22692e-46 2.19331e-46 2.15647e-46 2.11577e-46 2.07055e-46 2.02014e-46 1.96393e-46 1.90147e-46 1.83246e-46 1.75681e-46 1.67464e-46 1.5863e-46 1.49232e-46 1.39347e-46 1.29067e-46 1.18505e-46 1.07788e-46 9.70556e-47 8.64541e-47 7.61324e-47 6.62346e-47 5.68925e-47 4.8219e-47 4.03026e-47 3.3203e-47 2.69497e-47 2.15419e-47 1.69517e-47 1.31283e-47 1.00036e-47 7.49834e-48 5.52786e-48 4.0075e-48 2.85673e-48 2.00223e-48 1.3797e-48 9.34709e-49 6.2257e-49 4.07689e-49 2.62492e-49 1.66177e-49 1.03449e-49 6.33302e-50 3.813e-50 2.25807e-50 1.31542e-50 7.53876e-51 4.25102e-51 2.35884e-51 1.28816e-51 6.92407e-52 3.66382e-52 1.90873e-52 9.7916e-53 4.94675e-53 2.46152e-53 1.20661e-53 5.82729e-54 2.77311e-54 1.30055e-54 6.01186e-55 2.7395e-55 1.23076e-55 5.45228e-56 2.382e-56 1.02641e-56 4.36288e-57 1.82951e-57 7.56688e-58 3.08064e-58 1.21707e-58 4.20191e-59 0 
0 2.64462e-81 1.13555e-80 4.57769e-80 1.82339e-79 7.1969e-79 2.81509e-78 1.09118e-77 4.19105e-77 1.59494e-76 6.01352e-76 2.24617e-75 8.31106e-75 3.04603e-74 1.10572e-73 3.97514e-73 1.41522e-72 4.98915e-72 1.74149e-71 6.01832e-71 2.05897e-70 6.97284e-70 2.33731e-69 7.75411e-69 2.54577e-68 8.27058e-68 2.65855e-67 8.45482e-67 2.65995e-66 8.27775e-66 2.54787e-65 7.75575e-65 2.33459e-64 6.94852e-64 2.04467e-63 5.94786e-63 1.71024e-62 4.86029e-62 1.365e-61 3.78807e-61 1.03865e-60 2.81344e-60 7.52785e-60 1.98938e-59 5.19193e-59 1.33798e-58 3.40428e-58 8.55075e-58 2.11997e-57 5.18737e-57 1.25256e-56 2.98422e-56 7.01428e-56 1.62629e-55 3.71892e-55 8.38647e-55 1.86478e-54 4.08788e-54 8.83351e-54 1.88135e-53 3.94864e-53 8.16589e-53 1.6637e-52 3.33889e-52 6.59966e-52 1.28461e-51 2.46201e-51 4.64532e-51 8.62756e-51 1.57706e-50 2.83684e-50 5.02103e-50 8.74307e-50 1.49759e-49 2.52308e-49 4.18046e-49 6.81122e-49 1.09117e-48 1.71862e-48 2.66106e-48 4.05027e-48 6.05955e-48 8.91055e-48 1.28784e-47 1.82939e-47 2.5541e-47 3.50486e-47 4.72746e-47 6.2682e-47 8.17077e-47 1.04726e-46 1.32005e-46 1.63672e-46 1.99673e-46 2.39754e-46 2.83451e-46 3.30097e-46 3.78854e-46 4.28756e-46 4.78769e-46 5.27858e-46 5.75054e-46 6.19508e-46 6.6054e-46 6.97662e-46 7.30581e-46 7.59188e-46 7.83525e-46 8.03745e-46 8.20066e-46 8.32732e-46 8.41974e-46 8.47998e-46 8.50969e-46 8.51029e-46 8.48308e-46 8.42962e-46 8.35198e-46 8.25302e-46 8.13666e-46 8.00785e-46 7.87254e-46 7.73741e-46 7.60949e-46 7.49562e-46 7.40195e-46 7.33343e-46 7.29341e-46 7.28333e-46 7.30267e-46 7.34905e-46 7.4185e-46 7.50586e-46 7.60526e-46 7.71065e-46 7.81622e-46 7.91686e-46 8.00838e-46 8.08772e-46 8.15298e-46 8.2034e-46 8.23921e-46 8.26148e-46 8.27194e-46 8.27274e-46 8.26631e-46 8.25519e-46 8.24185e-46 8.22865e-46 8.21772e-46 8.21094e-46 8.20989e-46 8.21583e-46 8.22969e-46 8.2521e-46 8.28335e-46 8.32344e-46 8.37206e-46 8.42867e-46 8.49251e-46 8.56262e-46 8.63794e-46 8.71729e-46 8.79937e-46 8.88281e-46 8.96607e-46 9.04747e-46 9.12513e-46 9.19697e-46 9.26078e-46 9.31428e-46 9.35528e-46 9.38188e-46 9.39257e-46 9.3865e-46 9.36347e-46 9.32398e-46 9.26914e-46 9.20048e-46 9.11966e-46 9.0282e-46 8.92718e-46 8.81705e-46 8.69746e-46 8.56724e-46 8.42454e-46 8.26697e-46 8.09188e-46 7.89666e-46 7.67895e-46 7.4369e-46 7.16933e-46 6.87584e-46 6.55684e-46 6.21357e-46 5.84808e-46 5.46324e-46 5.06264e-46 4.65061e-46 4.23209e-46 3.8125e-46 3.39762e-46 2.9933e-46 2.60521e-46 2.2386e-46 1.89796e-46 1.58684e-46 1.30765e-46 1.0616e-46 8.48725e-47 6.67965e-47 5.17354e-47 3.94238e-47 2.95509e-47 2.17847e-47 1.57921e-47 1.12562e-47 7.8882e-48 5.43474e-48 3.68117e-48 2.45133e-48 1.60485e-48 1.03301e-48 6.53783e-49 4.06867e-49 2.48997e-49 1.49865e-49 8.87181e-50 5.16627e-50 2.95967e-50 1.66826e-50 9.25316e-51 5.05102e-51 2.71386e-51 1.4354e-51 7.47472e-52 3.83277e-52 1.93547e-52 9.62668e-53 4.71677e-53 2.27694e-53 1.08307e-53 5.07722e-54 2.34593e-54 1.06853e-54 4.79841e-55 2.12477e-55 9.27868e-56 3.99651e-56 1.69804e-56 7.1175e-57 2.9426e-57 1.19752e-57 4.72927e-58 1.63229e-58 0 
0 1.00328e-80 4.30835e-80 1.73702e-79 6.91981e-79 2.73162e-78 1.06864e-77 4.14282e-77 1.59144e-76 6.05733e-76 2.28421e-75 8.53345e-75 3.15801e-74 1.15763e-73 4.20304e-73 1.51132e-72 5.38166e-72 1.89761e-71 6.62516e-71 2.29005e-70 7.83646e-70 2.65449e-69 8.90006e-69 2.95336e-68 9.69872e-68 3.15171e-67 1.01338e-66 3.22369e-66 1.01449e-65 3.15801e-65 9.72318e-65 2.96067e-64 8.91485e-64 2.65422e-63 7.81291e-63 2.27351e-62 6.53949e-62 1.85911e-61 5.22316e-61 1.45004e-60 3.97737e-60 1.07778e-59 2.88494e-59 7.6271e-59 1.99135e-58 5.13392e-58 1.3068e-57 3.28379e-57 8.14501e-57 1.99389e-56 4.81671e-56 1.1481e-55 2.69981e-55 6.26254e-55 1.43276e-54 3.23254e-54 7.19119e-54 1.57719e-53 3.4098e-53 7.26572e-53 1.5257e-52 3.15674e-52 6.43464e-52 1.292e-51 2.55503e-51 4.97573e-51 9.54079e-51 1.80102e-50 3.34654e-50 6.12008e-50 1.10139e-49 1.95027e-49 3.39747e-49 5.82196e-49 9.8126e-49 1.62648e-48 2.65102e-48 4.24848e-48 6.69374e-48 1.03677e-47 1.57847e-47 2.36216e-47 3.47438e-47 5.02256e-47 7.13585e-47 9.96419e-47 1.36749e-46 1.84465e-46 2.44594e-46 3.18835e-46 4.08638e-46 5.15042e-46 6.38519e-46 7.78844e-46 9.35e-46 1.10515e-45 1.28666e-45 1.47624e-45 1.67011e-45 1.86422e-45 2.05454e-45 2.23729e-45 2.40919e-45 2.56762e-45 2.71071e-45 2.83737e-45 2.94723e-45 3.0405e-45 3.11782e-45 3.18007e-45 3.22824e-45 3.26326e-45 3.28593e-45 3.29691e-45 3.29674e-45 3.28593e-45 3.26506e-45 3.23491e-45 3.19659e-45 3.15159e-45 3.1018e-45 3.04952e-45 2.99733e-45 2.94792e-45 2.90395e-45 2.86778e-45 2.84133e-45 2.82588e-45 2.822e-45 2.82948e-45 2.84739e-45 2.87421e-45 2.90794e-45 2.94631e-45 2.98697e-45 3.0277e-45 3.0665e-45 3.10178e-45 3.13234e-45 3.15746e-45 3.17685e-45 3.1906e-45 3.19913e-45 3.2031e-45 3.20335e-45 3.20082e-45 3.19649e-45 3.1913e-45 3.18618e-45 3.18193e-45 3.17929e-45 3.17886e-45 3.18113e-45 3.18646e-45 3.19508e-45 3.20711e-45 3.22255e-45 3.24128e-45 3.2631e-45 3.2877e-45 3.31472e-45 3.34375e-45 3.37434e-45 3.40599e-45 3.43817e-45 3.47028e-45 3.50169e-45 3.53166e-45 3.55939e-45 3.58403e-45 3.6047e-45 3.62055e-45 3.63085e-45 3.63501e-45 3.63269e-45 3.62383e-45 3.60863e-45 3.58751e-45 3.56106e-45 3.52994e-45 3.49474e-45 3.45588e-45 3.41354e-45 3.3676e-45 3.31759e-45 3.26282e-45 3.20236e-45 3.13518e-45 3.06026e-45 2.97669e-45 2.88374e-45 2.78094e-45 2.6681e-45 2.54535e-45 2.41315e-45 2.27227e-45 2.12377e-45 1.96903e-45 1.80969e-45 1.64766e-45 1.48504e-45 1.32407e-45 1.16704e-45 1.01616e-45 8.73507e-46 7.40851e-46 6.19601e-46 5.10725e-46 4.1472e-46 3.31619e-46 2.61027e-46 2.02191e-46 1.54082e-46 1.15497e-46 8.51405e-47 6.17155e-47 4.39847e-47 3.08196e-47 2.12301e-47 1.43771e-47 9.57168e-48 6.26484e-48 4.03141e-48 2.55067e-48 1.58683e-48 9.70788e-49 5.84081e-49 3.45638e-49 2.01194e-49 1.15214e-49 6.49151e-50 3.59905e-50 1.96376e-50 1.05464e-50 5.57566e-51 2.90216e-51 1.48744e-51 7.50784e-52 3.73255e-52 1.82798e-52 8.82019e-53 4.19357e-53 1.96494e-53 9.07484e-54 4.13153e-54 1.85449e-54 8.20812e-55 3.58281e-55 1.5425e-55 6.55094e-56 2.7447e-56 1.13426e-56 4.61404e-57 1.82149e-57 6.28487e-58 0 