# vtk DataFile Version 3.0
Gray-Scott Simulation Output
ASCII
DATASET STRUCTURED_POINTS
DIMENSIONS 256 256 1
SPACING 1.0 1.0 1.0
ORIGIN 0 0 0
POINT_DATA 65536
SCALARS u double
LOOKUP_TABLE default
0 0 0 0 0 0 0 0 0 0 0 0 0 0 0 0 0 0 0 0 0 0 0 0 0 0 0 0 0 0 0 0 0 0 0 0 0 0 0 0 0 0 0 0 0 0 0 0 0 0 0 0 0 0 0 0 0 0 0 0 0 0 0 0 0 0 0 0 0 0 0 0 0 0 0 0 0 0 0 0 0 0 0 0 0 0 0 0 0 0 0 0 0 0 0 0 0 0 0 0 0 0 0 0 0 0 0 0 0 0 0 0 0 0 0 0 0 0 0 0 0 0 0 0 0 0 0 0 0 0 0 0 0 0 0 0 0 0 0 0 0 0 0 0 0 0 0 0 0 0 0 0 0 0 0 0 0 0 0 0 0 0 0 0 0 0 0 0 0 0 0 0 0 0 0 0 0 0 0 0 0 0 0 0 0 0 0 0 0 0 0 0 0 0 0 0 0 0 0 0 0 0 0 0 0 0 0 0 0 0 0 0 0 0 0 0 0 0 0 0 0 0 0 0 0 0 0 0 0 0 0 0 0 0 0 0 0 0 0 0 0 0 0 0 0 0 0 0 0 0 0 0 0 0 0 0 
0 6.081e-110 4.112e-109 2.69487e-108 1.74788e-107 1.12237e-106 7.1347e-106 4.48942e-105 2.79602e-104 1.72339e-103 1.05118e-102 6.34425e-102 3.78832e-101 2.23786e-100 1.30766e-99 7.55761e-99 4.31971e-98 2.4415e-97 1.36441e-96 7.53815e-96 4.11688e-95 2.2223e-94 1.18554e-93 6.2496e-93 3.25505e-92 1.67485e-91 8.51233e-91 4.27285e-90 2.11799e-89 1.03659e-88 5.00841e-88 2.3886e-87 1.12428e-86 5.22179e-86 2.39285e-85 1.08166e-84 4.82258e-84 2.12033e-83 9.19159e-83 3.92795e-82 1.65444e-81 6.86698e-81 2.80822e-80 1.13126e-79 4.48827e-79 1.75344e-78 6.74386e-78 2.55295e-77 9.51047e-77 3.4857e-76 1.25664e-75 4.45515e-75 1.55291e-74 5.32056e-74 1.79139e-73 5.92565e-73 1.92523e-72 6.14211e-72 1.92364e-71 5.9127e-71 1.78311e-70 5.2745e-70 1.52991e-69 4.35016e-69 1.21218e-68 3.30918e-68 8.84761e-68 2.31605e-67 5.93395e-67 1.48756e-66 3.64747e-66 8.74485e-66 2.04932e-65 4.69261e-65 1.04959e-64 2.29231e-64 4.88684e-64 1.01657e-63 2.06278e-63 4.08164e-63 7.87297e-63 1.47989e-62 2.71007e-62 4.83356e-62 8.39411e-62 1.41906e-61 2.33486e-61 3.73831e-61 5.82365e-61 8.82647e-61 1.30151e-60 1.86725e-60 2.60684e-60 3.54235e-60 4.68692e-60 6.04104e-60 7.58994e-60 9.30269e-60 1.11337e-59 1.30267e-59 1.49199e-59 1.67532e-59 1.84741e-59 2.00428e-59 2.14348e-59 2.26411e-59 2.36664e-59 2.45255e-59 2.52387e-59 2.58273e-59 2.63099e-59 2.66992e-59 2.70001e-59 2.72088e-59 2.73139e-59 2.72982e-59 2.71425e-59 2.68303e-59 2.63528e-59 2.57139e-59 2.49337e-59 2.40498e-59 2.3116e-59 2.21973e-59 2.13636e-59 2.06804e-59 2.02011e-59 1.99597e-59 1.99668e-59 2.0209e-59 2.06521e-59 2.12465e-59 2.19349e-59 2.26596e-59 2.33688e-59 2.4021e-59 2.45868e-59 2.50492e-59 2.54016e-59 2.56458e-59 2.57894e-59 2.58441e-59 2.58238e-59 2.57442e-59 2.56214e-59 2.54718e-59 2.53108e-59 2.51525e-59 2.50086e-59 2.48886e-59 2.47995e-59 2.47467e-59 2.47344e-59 2.47664e-59 2.48459e-59 2.49758e-59 2.51576e-59 2.53903e-59 2.56698e-59 2.59885e-59 2.63362e-59 2.67013e-59 2.70731e-59 2.74439e-59 2.78104e-59 2.81734e-59 2.85363e-59 2.89023e-59 2.92707e-59 2.96339e-59 2.99757e-59 3.02719e-59 3.04941e-59 3.06143e-59 3.06113e-59 3.04759e-59 3.02136e-59 2.9845e-59 2.9402e-59 2.89225e-59 2.84422e-59 2.79884e-59 2.75742e-59 2.7196e-59 2.68343e-59 2.64571e-59 2.6026e-59 2.55025e-59 2.48548e-59 2.4062e-59 2.31171e-59 2.2026e-59 2.08058e-59 1.94802e-59 1.80755e-59 1.66173e-59 1.51283e-59 1.36282e-59 1.21345e-59 1.06642e-59 9.23539e-60 7.86783e-60 6.58217e-60 5.39854e-60 4.33427e-60 3.40177e-60 2.60706e-60 1.94916e-60 1.42058e-60 1.0087e-60 6.97519e-61 4.69592e-61 3.0774e-61 1.96298e-61 1.21875e-61 7.36581e-62 4.33396e-62 2.48305e-62 1.38553e-62 7.53151e-63 3.98933e-63 2.05966e-63 1.03681e-63 5.09039e-64 2.43831e-64 1.13987e-64 5.20232e-65 2.31879e-65 1.0097e-65 4.29673e-66 1.7875e-66 7.27206e-67 2.89413e-67 1.12712e-67 4.29689e-68 1.60401e-68 5.86498e-69 2.10119e-69 7.37794e-70 2.53984e-70 8.57439e-71 2.83957e-71 9.2273e-72 2.943e-72 9.2154e-73 2.83376e-73 8.55949e-74 2.54026e-74 7.40902e-75 2.12423e-75 5.98827e-76 1.66018e-76 4.52641e-77 1.20956e-77 2.99489e-78 0 
0 4.10687e-109 2.77665e-108 1.81944e-107 1.17989e-106 7.57528e-106 4.81472e-105 3.02914e-104 1.88627e-103 1.16247e-102 7.08948e-102 4.27813e-101 2.55423e-100 1.50864e-99 8.8143e-99 5.09353e-98 2.91093e-97 1.64505e-96 9.192e-96 5.07781e-95 2.77286e-94 1.49662e-93 7.98313e-93 4.20785e-92 2.19138e-91 1.12743e-90 5.72951e-90 2.87569e-89 1.4253e-88 6.97504e-88 3.36978e-87 1.60697e-86 7.56311e-86 3.51246e-85 1.60944e-84 7.27478e-84 3.24322e-83 1.42585e-82 6.18063e-82 2.64109e-81 1.11236e-80 4.61677e-80 1.88792e-79 7.60499e-79 3.01716e-78 1.17868e-77 4.53315e-77 1.71603e-76 6.39257e-76 2.34292e-75 8.44641e-75 2.99449e-74 1.04377e-73 3.57618e-73 1.20408e-72 3.98297e-72 1.29408e-71 4.12863e-71 1.29308e-70 3.97466e-70 1.1987e-69 3.54592e-69 1.02857e-68 2.92479e-68 8.15041e-68 2.22514e-67 5.94961e-67 1.55754e-66 3.99084e-66 1.00052e-65 2.45344e-65 5.88261e-65 1.37867e-64 3.1572e-64 7.06224e-64 1.54253e-63 3.28871e-63 6.84183e-63 1.38844e-62 2.74754e-62 5.30011e-62 9.96353e-62 1.82473e-61 3.25475e-61 5.65274e-61 9.5569e-61 1.57255e-60 2.51795e-60 3.92275e-60 5.94572e-60 8.76766e-60 1.25793e-59 1.75623e-59 2.38654e-59 3.15769e-59 4.07003e-59 5.11355e-59 6.26742e-59 7.50089e-59 8.77593e-59 1.0051e-58 1.12856e-58 1.24443e-58 1.35003e-58 1.4437e-58 1.52486e-58 1.59382e-58 1.65158e-58 1.69951e-58 1.73905e-58 1.77147e-58 1.79761e-58 1.8178e-58 1.83181e-58 1.83885e-58 1.83778e-58 1.82731e-58 1.80633e-58 1.77425e-58 1.73132e-58 1.67891e-58 1.61952e-58 1.55679e-58 1.49508e-58 1.43907e-58 1.39319e-58 1.361e-58 1.34481e-58 1.34532e-58 1.36162e-58 1.39142e-58 1.43138e-58 1.47766e-58 1.52637e-58 1.57403e-58 1.61785e-58 1.65586e-58 1.68692e-58 1.71059e-58 1.72699e-58 1.73663e-58 1.74029e-58 1.73893e-58 1.73358e-58 1.72533e-58 1.71529e-58 1.70448e-58 1.69386e-58 1.6842e-58 1.67615e-58 1.67018e-58 1.66663e-58 1.66581e-58 1.66795e-58 1.67328e-58 1.682e-58 1.69419e-58 1.7098e-58 1.72855e-58 1.74993e-58 1.77325e-58 1.79775e-58 1.82269e-58 1.84758e-58 1.87217e-58 1.89653e-58 1.92089e-58 1.94546e-58 1.97019e-58 1.99458e-58 2.01753e-58 2.03742e-58 2.05235e-58 2.06042e-58 2.06023e-58 2.05114e-58 2.03353e-58 2.00879e-58 1.97905e-58 1.94685e-58 1.9146e-58 1.88413e-58 1.85631e-58 1.83091e-58 1.80662e-58 1.78129e-58 1.75233e-58 1.71717e-58 1.67365e-58 1.6204e-58 1.55691e-58 1.4836e-58 1.4016e-58 1.31249e-58 1.21805e-58 1.11998e-58 1.01981e-58 9.18847e-59 8.18273e-59 7.19238e-59 6.22962e-59 5.3078e-59 4.44093e-59 3.64266e-59 2.92473e-59 2.29561e-59 1.75937e-59 1.31541e-59 9.58699e-60 6.80732e-60 4.70718e-60 3.16893e-60 2.07663e-60 1.32456e-60 8.22335e-61 4.96967e-61 2.92391e-61 1.67507e-61 9.34613e-62 5.08e-62 2.69058e-62 1.38901e-62 6.99154e-63 3.4323e-63 1.64393e-63 7.68444e-64 3.50684e-64 1.56294e-64 6.80511e-65 2.89564e-65 1.20452e-65 4.89995e-66 1.94993e-66 7.59343e-67 2.89461e-67 1.08047e-67 3.95042e-68 1.41519e-68 4.96888e-69 1.71043e-69 5.77404e-70 1.91209e-70 6.21316e-71 1.98158e-71 6.20471e-72 1.90791e-72 5.76278e-73 1.71023e-73 4.98804e-74 1.4301e-74 4.03147e-75 1.11767e-75 3.04731e-76 8.14318e-77 2.01628e-77 0 
0 2.68794e-108 1.81702e-107 1.19043e-106 7.7186e-106 4.95478e-105 3.14868e-104 1.98065e-103 1.23318e-102 7.59869e-102 4.63345e-101 2.79563e-100 1.66887e-99 9.85568e-99 5.75741e-98 3.32658e-97 1.90087e-96 1.07409e-95 6.00091e-95 3.31458e-94 1.80978e-93 9.76689e-93 5.20916e-92 2.7454e-91 1.4296e-90 7.35424e-90 3.73697e-89 1.87543e-88 9.29441e-88 4.54801e-87 2.19703e-86 1.04762e-85 4.93015e-85 2.28948e-84 1.04898e-83 4.74112e-83 2.11353e-82 9.29127e-82 4.02726e-81 1.72082e-80 7.24726e-80 3.00779e-79 1.22991e-78 4.95419e-78 1.96543e-77 7.67789e-77 2.95282e-76 1.11777e-75 4.16387e-75 1.52607e-74 5.50159e-74 1.95047e-73 6.79867e-73 2.32939e-72 7.84304e-72 2.59444e-71 8.42966e-71 2.68948e-70 8.42368e-70 2.58937e-69 7.80948e-69 2.31028e-68 6.70181e-68 1.9058e-67 5.31118e-67 1.4501e-66 3.87758e-66 1.01518e-65 2.60138e-65 6.52228e-65 1.59951e-64 3.83549e-64 8.98983e-64 2.05889e-63 4.60589e-63 1.00611e-62 2.14527e-62 4.46344e-62 9.05871e-62 1.79277e-61 3.45866e-61 6.50245e-61 1.19097e-60 2.12452e-60 3.69009e-60 6.23922e-60 1.02672e-59 1.64408e-59 2.5615e-59 3.8827e-59 5.72578e-59 8.21531e-59 1.147e-58 1.5587e-58 2.0624e-58 2.65829e-58 3.33985e-58 4.09343e-58 4.89895e-58 5.73153e-58 6.56404e-58 7.36996e-58 8.12621e-58 8.81525e-58 9.42635e-58 9.95562e-58 1.04052e-57 1.07816e-57 1.10938e-57 1.13512e-57 1.15622e-57 1.17323e-57 1.18637e-57 1.19547e-57 1.20005e-57 1.19934e-57 1.19252e-57 1.17886e-57 1.15796e-57 1.13001e-57 1.09588e-57 1.05721e-57 1.01636e-57 9.76176e-58 9.39712e-58 9.09843e-58 8.88901e-58 8.78373e-58 8.78721e-58 8.89359e-58 9.08784e-58 9.34827e-58 9.64978e-58 9.96709e-58 1.02775e-57 1.05629e-57 1.08105e-57 1.10127e-57 1.11668e-57 1.12735e-57 1.13362e-57 1.136e-57 1.13511e-57 1.13163e-57 1.12626e-57 1.11972e-57 1.11269e-57 1.10578e-57 1.0995e-57 1.09427e-57 1.09038e-57 1.08808e-57 1.08754e-57 1.08893e-57 1.0924e-57 1.09806e-57 1.10599e-57 1.11614e-57 1.12832e-57 1.14223e-57 1.15739e-57 1.17332e-57 1.18954e-57 1.20573e-57 1.22172e-57 1.23756e-57 1.25341e-57 1.26939e-57 1.28549e-57 1.30136e-57 1.3163e-57 1.32925e-57 1.33896e-57 1.34422e-57 1.3441e-57 1.33819e-57 1.32673e-57 1.31063e-57 1.29128e-57 1.27032e-57 1.24934e-57 1.22951e-57 1.2114e-57 1.19487e-57 1.17906e-57 1.16257e-57 1.14371e-57 1.12082e-57 1.09249e-57 1.05781e-57 1.01647e-57 9.68731e-58 9.15318e-58 8.57266e-58 7.95721e-58 7.31791e-58 6.66466e-58 6.00598e-58 5.34955e-58 4.70288e-58 4.07398e-58 3.4716e-58 2.90494e-58 2.38298e-58 1.91346e-58 1.50194e-58 1.15114e-58 8.60674e-59 6.27282e-59 4.45402e-59 3.07983e-59 2.07331e-59 1.35861e-59 8.66526e-60 5.3794e-60 3.25074e-60 1.91244e-60 1.09553e-60 6.11201e-61 3.32183e-61 1.75922e-61 9.0811e-62 4.5705e-62 2.24354e-62 1.07446e-62 5.02197e-63 2.29158e-63 1.02121e-63 4.44598e-64 1.89162e-64 7.868e-65 3.20038e-65 1.27347e-65 4.95873e-66 1.8901e-66 7.05462e-67 2.57911e-67 9.23868e-68 3.24358e-68 1.11646e-68 3.7687e-69 1.24795e-69 4.05488e-70 1.29317e-70 4.04901e-71 1.245e-71 3.76036e-72 1.11594e-72 3.25466e-73 9.33114e-74 2.63043e-74 7.29249e-75 1.98827e-75 5.31318e-76 1.31557e-76 0 
0 1.74102e-107 1.17673e-106 7.70812e-106 4.99703e-105 3.20722e-104 2.03781e-103 1.28167e-102 7.97864e-102 4.91559e-101 2.99693e-100 1.80796e-99 1.07912e-98 6.37196e-98 3.72181e-97 2.15014e-96 1.22846e-95 6.94057e-95 3.87717e-94 2.14128e-93 1.16901e-92 6.30807e-92 3.36401e-91 1.77274e-90 9.23013e-90 4.74773e-89 2.41226e-88 1.21049e-87 5.99848e-87 2.93495e-86 1.41768e-85 6.75942e-85 3.18076e-84 1.47698e-83 6.76663e-83 3.05813e-82 1.36319e-81 5.99235e-81 2.59721e-80 1.10971e-79 4.67336e-79 1.93948e-78 7.93041e-78 3.19433e-77 1.26722e-76 4.95024e-76 1.90376e-75 7.20649e-75 2.6845e-74 9.83874e-74 3.54694e-73 1.2575e-72 4.38326e-72 1.50184e-71 5.05679e-71 1.67281e-70 5.43533e-70 1.7342e-69 5.43191e-69 1.6698e-68 5.03636e-68 1.48999e-67 4.32253e-67 1.22929e-66 3.42608e-66 9.35484e-66 2.5017e-65 6.55018e-65 1.67862e-64 4.20909e-64 1.03232e-63 2.47566e-63 5.80318e-63 1.3292e-62 2.97384e-62 6.49675e-62 1.38541e-61 2.88278e-61 5.85132e-61 1.15813e-60 2.23453e-60 4.20145e-60 7.69604e-60 1.37299e-59 2.38497e-59 4.03287e-59 6.63697e-59 1.06286e-58 1.65606e-58 2.5104e-58 3.70226e-58 5.31222e-58 7.41708e-58 1.00796e-57 1.33371e-57 1.71907e-57 2.15982e-57 2.64712e-57 3.16795e-57 3.70623e-57 4.24439e-57 4.76528e-57 5.25397e-57 5.69912e-57 6.09379e-57 6.43551e-57 6.72565e-57 6.96847e-57 7.16979e-57 7.33575e-57 7.47169e-57 7.58125e-57 7.66584e-57 7.72446e-57 7.75389e-57 7.7493e-57 7.70528e-57 7.61716e-57 7.48245e-57 7.30223e-57 7.08217e-57 6.8329e-57 6.56955e-57 6.31052e-57 6.07549e-57 5.88298e-57 5.74806e-57 5.68029e-57 5.68266e-57 5.75139e-57 5.87676e-57 6.04479e-57 6.23927e-57 6.44392e-57 6.6441e-57 6.82812e-57 6.9877e-57 7.11806e-57 7.21736e-57 7.28612e-57 7.32652e-57 7.34184e-57 7.33607e-57 7.3136e-57 7.27902e-57 7.23691e-57 7.19164e-57 7.14713e-57 7.10671e-57 7.073e-57 7.048e-57 7.03318e-57 7.02972e-57 7.03866e-57 7.06095e-57 7.09739e-57 7.14839e-57 7.2137e-57 7.29215e-57 7.38164e-57 7.47927e-57 7.5818e-57 7.68625e-57 7.79044e-57 7.89343e-57 7.99545e-57 8.09748e-57 8.20044e-57 8.30413e-57 8.40638e-57 8.50263e-57 8.58608e-57 8.6487e-57 8.68263e-57 8.68187e-57 8.64382e-57 8.57003e-57 8.46629e-57 8.34162e-57 8.20661e-57 8.07139e-57 7.94361e-57 7.82696e-57 7.72043e-57 7.61853e-57 7.51226e-57 7.39075e-57 7.24321e-57 7.0606e-57 6.83708e-57 6.57057e-57 6.26275e-57 5.91831e-57 5.54388e-57 5.14681e-57 4.73421e-57 4.31245e-57 3.887e-57 3.46281e-57 3.04474e-57 2.63799e-57 2.24824e-57 1.88148e-57 1.54356e-57 1.23952e-57 9.72995e-58 7.45763e-58 5.57596e-58 4.06391e-58 2.88555e-58 1.99523e-58 1.34312e-58 8.80081e-59 5.61288e-59 3.48425e-59 2.10536e-59 1.2385e-59 7.09406e-60 3.95746e-60 2.15065e-60 1.13886e-60 5.87817e-61 2.95816e-61 1.45193e-61 6.95271e-62 3.24932e-62 1.48254e-62 6.60603e-63 2.87571e-63 1.2234e-63 5.08805e-64 2.0694e-64 8.23359e-65 3.20574e-65 1.22181e-65 4.55988e-66 1.66692e-66 5.9706e-67 2.09604e-67 7.21416e-68 2.43504e-68 8.06274e-69 2.61962e-69 8.354e-70 2.61556e-70 8.04204e-71 2.4289e-71 7.20784e-72 2.10213e-72 6.02667e-73 1.69888e-73 4.70983e-74 1.28411e-74 3.43146e-75 8.49647e-76 0 
0 1.11641e-106 7.54447e-106 4.94119e-105 3.20278e-104 2.0553e-103 1.3057e-102 8.21088e-102 5.11064e-101 3.14817e-100 1.91909e-99 1.15757e-98 6.90821e-98 4.07858e-97 2.38194e-96 1.37589e-95 7.86004e-95 4.4402e-94 2.4801e-93 1.36954e-92 7.47595e-92 4.03362e-91 2.15084e-90 1.13331e-89 5.90018e-89 3.03458e-88 1.54168e-87 7.73555e-87 3.83293e-86 1.87522e-85 9.05718e-85 4.31807e-84 2.03178e-83 9.43386e-83 4.32174e-82 1.95306e-81 8.70539e-81 3.82654e-80 1.65842e-79 7.08561e-79 2.98386e-78 1.23827e-77 5.06307e-77 2.03932e-76 8.09e-76 3.1602e-75 1.21534e-74 4.60048e-74 1.71373e-73 6.28087e-73 2.26432e-72 8.02779e-72 2.7983e-71 9.58805e-71 3.22846e-70 1.06803e-69 3.47039e-69 1.10732e-68 3.46854e-68 1.06631e-67 3.21633e-67 9.51603e-67 2.76084e-66 7.85217e-66 2.18861e-65 5.97646e-65 1.59838e-64 4.18543e-64 1.07271e-63 2.69005e-63 6.59832e-63 1.58254e-62 3.71003e-62 8.49866e-62 1.90163e-61 4.15483e-61 8.86103e-61 1.84403e-60 3.74335e-60 7.40995e-60 1.42985e-59 2.68876e-59 4.92568e-59 8.78841e-59 1.52676e-58 2.58191e-58 4.24947e-58 6.80575e-58 1.0605e-57 1.6077e-57 2.37112e-57 3.40239e-57 4.75071e-57 6.45626e-57 8.54292e-57 1.10114e-56 1.38346e-56 1.69558e-56 2.02914e-56 2.37384e-56 2.71842e-56 3.05188e-56 3.36465e-56 3.64949e-56 3.90196e-56 4.12047e-56 4.30593e-56 4.46107e-56 4.58964e-56 4.69558e-56 4.78233e-56 4.85222e-56 4.90616e-56 4.94354e-56 4.96228e-56 4.95931e-56 4.93118e-56 4.8749e-56 4.78888e-56 4.6738e-56 4.53329e-56 4.37413e-56 4.20599e-56 4.04061e-56 3.89056e-56 3.76768e-56 3.68158e-56 3.63838e-56 3.63998e-56 3.68395e-56 3.76409e-56 3.87146e-56 3.99572e-56 4.12644e-56 4.2543e-56 4.37181e-56 4.4737e-56 4.55692e-56 4.62031e-56 4.66418e-56 4.68995e-56 4.69972e-56 4.69602e-56 4.68167e-56 4.6596e-56 4.63273e-56 4.60385e-56 4.57546e-56 4.54969e-56 4.5282e-56 4.51226e-56 4.50281e-56 4.5006e-56 4.5063e-56 4.5205e-56 4.54372e-56 4.57622e-56 4.61785e-56 4.66786e-56 4.72491e-56 4.78715e-56 4.85253e-56 4.91913e-56 4.98557e-56 5.05124e-56 5.1163e-56 5.18138e-56 5.24706e-56 5.31322e-56 5.37847e-56 5.43989e-56 5.49317e-56 5.53315e-56 5.55481e-56 5.55435e-56 5.53008e-56 5.48301e-56 5.41682e-56 5.33727e-56 5.25112e-56 5.16482e-56 5.08328e-56 5.00884e-56 4.94086e-56 4.87582e-56 4.80799e-56 4.73044e-56 4.63626e-56 4.51969e-56 4.37699e-56 4.20683e-56 4.01027e-56 3.79029e-56 3.5511e-56 3.29737e-56 3.03364e-56 2.76393e-56 2.49175e-56 2.22025e-56 1.95255e-56 1.69198e-56 1.4422e-56 1.20707e-56 9.90374e-57 7.95357e-57 6.2437e-57 4.78572e-57 3.57827e-57 2.60794e-57 1.85172e-57 1.28035e-57 8.61852e-58 5.64701e-58 3.60127e-58 2.23536e-58 1.35061e-58 7.94443e-59 4.5501e-59 2.53805e-59 1.37914e-59 7.30232e-60 3.76866e-60 1.89634e-60 9.30659e-61 4.45604e-61 2.08227e-61 9.49945e-62 4.23237e-62 1.84221e-62 7.83628e-63 3.25871e-63 1.32523e-63 5.27217e-64 2.0525e-64 7.82195e-65 2.91892e-65 1.06694e-65 3.82127e-66 1.34138e-66 4.6164e-67 1.55808e-67 5.15865e-68 1.67596e-68 5.34432e-69 1.67317e-69 5.1442e-70 1.55361e-70 4.61019e-71 1.34449e-71 3.85445e-72 1.08652e-72 3.01211e-73 8.21221e-74 2.19449e-74 5.43364e-75 0 
0 7.08677e-106 4.78835e-105 3.13559e-104 2.03211e-103 1.30385e-102 8.28188e-102 5.20727e-101 3.24064e-100 1.99596e-99 1.21654e-98 7.33696e-98 4.37799e-97 2.5844e-96 1.50912e-95 8.71608e-95 4.97858e-94 2.81209e-93 1.57052e-92 8.67154e-92 4.73303e-91 2.5534e-90 1.3614e-89 7.17266e-89 3.73381e-88 1.92018e-87 9.75431e-87 4.89389e-86 2.42469e-85 1.18615e-84 5.72858e-84 2.73093e-83 1.28489e-82 5.96554e-82 2.73269e-81 1.23487e-80 5.50391e-80 2.41917e-79 1.04842e-78 4.4792e-78 1.88619e-77 7.82728e-77 3.20034e-76 1.28902e-75 5.11345e-75 1.99745e-74 7.68165e-74 2.90777e-73 1.08318e-72 3.96993e-72 1.43122e-71 5.07428e-71 1.76882e-70 6.06084e-70 2.04086e-69 6.75178e-69 2.194e-68 7.00088e-68 2.19307e-67 6.74243e-67 2.03387e-66 6.01798e-66 1.74611e-65 4.96656e-65 1.38444e-64 3.78085e-64 1.01127e-63 2.64833e-63 6.78826e-63 1.70249e-62 4.17646e-62 1.0018e-61 2.34884e-61 5.38121e-61 1.20423e-60 2.63142e-60 5.61273e-60 1.16819e-59 2.37169e-59 4.69533e-59 9.06137e-59 1.70414e-58 3.12227e-58 5.57137e-58 9.67984e-58 1.63713e-57 2.69475e-57 4.31616e-57 6.72614e-57 1.01974e-56 1.50407e-56 2.15835e-56 3.01379e-56 4.09591e-56 5.41982e-56 6.98597e-56 8.77705e-56 1.0757e-55 1.28729e-55 1.50592e-55 1.72443e-55 1.93586e-55 2.13412e-55 2.31463e-55 2.47457e-55 2.61295e-55 2.73035e-55 2.82851e-55 2.90983e-55 2.9768e-55 3.03162e-55 3.07577e-55 3.10983e-55 3.13343e-55 3.14525e-55 3.14335e-55 3.12555e-55 3.08995e-55 3.03555e-55 2.96278e-55 2.87392e-55 2.77328e-55 2.66695e-55 2.56238e-55 2.46751e-55 2.38983e-55 2.33542e-55 2.30815e-55 2.30921e-55 2.33707e-55 2.38781e-55 2.45576e-55 2.53438e-55 2.61708e-55 2.69795e-55 2.77227e-55 2.8367e-55 2.88932e-55 2.92938e-55 2.95711e-55 2.97339e-55 2.97955e-55 2.97721e-55 2.96813e-55 2.95418e-55 2.9372e-55 2.91896e-55 2.90103e-55 2.88475e-55 2.87118e-55 2.86111e-55 2.85515e-55 2.85375e-55 2.85734e-55 2.8663e-55 2.88096e-55 2.90147e-55 2.92775e-55 2.95932e-55 2.99534e-55 3.03464e-55 3.07592e-55 3.11797e-55 3.15993e-55 3.2014e-55 3.2425e-55 3.28361e-55 3.3251e-55 3.36691e-55 3.40814e-55 3.44697e-55 3.48065e-55 3.50593e-55 3.51963e-55 3.51936e-55 3.50403e-55 3.47429e-55 3.43246e-55 3.38219e-55 3.32774e-55 3.27321e-55 3.22167e-55 3.17462e-55 3.13166e-55 3.09055e-55 3.04768e-55 2.99866e-55 2.93913e-55 2.86544e-55 2.77522e-55 2.66763e-55 2.54333e-55 2.40419e-55 2.25287e-55 2.0923e-55 1.92534e-55 1.75453e-55 1.58208e-55 1.40998e-55 1.2402e-55 1.07487e-55 9.16324e-56 7.67028e-56 6.2939e-56 5.05494e-56 3.96844e-56 3.04187e-56 2.27443e-56 1.65767e-56 1.17698e-56 8.1378e-57 5.47763e-57 3.58884e-57 2.28856e-57 1.42043e-57 8.58158e-58 5.0473e-58 2.89051e-58 1.61216e-58 8.75924e-59 4.63735e-59 2.393e-59 1.20399e-59 5.90801e-60 2.82843e-60 1.32153e-60 6.02817e-61 2.68544e-61 1.16874e-61 4.97089e-62 2.06689e-62 8.40448e-63 3.34317e-63 1.30138e-63 4.95893e-64 1.85033e-64 6.76276e-65 2.42185e-65 8.50061e-66 2.92525e-66 9.87219e-67 3.26833e-67 1.06175e-67 3.38547e-68 1.05983e-68 3.2583e-69 9.83992e-70 2.91977e-70 8.51469e-71 2.44094e-71 6.88045e-72 1.90739e-72 5.2002e-73 1.38959e-73 3.44064e-74 0 
0 4.45282e-105 3.0082e-104 1.96957e-103 1.27624e-102 8.18739e-102 5.19974e-101 3.26888e-100 2.03403e-99 1.2526e-98 7.63358e-98 4.60317e-97 2.74636e-96 1.621e-95 9.46437e-95 5.46555e-94 3.12151e-93 1.76293e-92 9.84459e-92 5.43502e-91 2.96617e-90 1.60003e-89 8.52998e-89 4.49365e-88 2.33899e-87 1.20276e-86 6.10931e-86 3.06487e-85 1.51837e-84 7.42724e-84 3.58674e-83 1.70975e-82 8.04378e-82 3.73435e-81 1.71053e-80 7.72927e-80 3.44482e-79 1.51406e-78 6.56134e-78 2.80312e-77 1.18036e-76 4.8981e-76 2.00265e-75 8.06602e-75 3.19971e-74 1.24988e-73 4.80671e-73 1.81952e-72 6.77801e-72 2.48422e-71 8.95619e-71 3.17543e-70 1.10695e-69 3.79308e-69 1.2773e-68 4.2259e-68 1.37328e-67 4.38232e-67 1.37288e-66 4.22112e-66 1.27341e-65 3.76818e-65 1.09343e-64 3.11039e-64 8.67113e-64 2.3683e-63 6.33523e-63 1.65926e-62 4.25355e-62 1.06692e-61 2.61762e-61 6.27962e-61 1.47252e-60 3.374e-60 7.55145e-60 1.65033e-59 3.52056e-59 7.3284e-59 1.48803e-58 2.9463e-58 5.68672e-58 1.06962e-57 1.95996e-57 3.49777e-57 6.07779e-57 1.02804e-56 1.69234e-56 2.71086e-56 4.22486e-56 6.40576e-56 9.4488e-56 1.35598e-55 1.89351e-55 2.57346e-55 3.40535e-55 4.38943e-55 5.5148e-55 6.75877e-55 8.088e-55 9.46126e-55 1.08336e-54 1.21611e-54 1.34058e-54 1.45386e-54 1.5542e-54 1.64098e-54 1.71457e-54 1.77608e-54 1.827e-54 1.86893e-54 1.90323e-54 1.93084e-54 1.95215e-54 1.96689e-54 1.97427e-54 1.97307e-54 1.96191e-54 1.93962e-54 1.90555e-54 1.85998e-54 1.80434e-54 1.74131e-54 1.67473e-54 1.60925e-54 1.54985e-54 1.50122e-54 1.46717e-54 1.45012e-54 1.45082e-54 1.4683e-54 1.50011e-54 1.5427e-54 1.59196e-54 1.64377e-54 1.69443e-54 1.74097e-54 1.78132e-54 1.81426e-54 1.83934e-54 1.85669e-54 1.86688e-54 1.87073e-54 1.86925e-54 1.86357e-54 1.85483e-54 1.84421e-54 1.83279e-54 1.82158e-54 1.8114e-54 1.80291e-54 1.79662e-54 1.79289e-54 1.79202e-54 1.79426e-54 1.79986e-54 1.80902e-54 1.82184e-54 1.83826e-54 1.858e-54 1.88052e-54 1.90509e-54 1.9309e-54 1.9572e-54 1.98344e-54 2.00937e-54 2.03508e-54 2.06079e-54 2.08675e-54 2.11291e-54 2.13872e-54 2.16302e-54 2.18411e-54 2.19994e-54 2.20852e-54 2.20836e-54 2.19877e-54 2.18017e-54 2.15399e-54 2.12253e-54 2.08845e-54 2.05432e-54 2.02207e-54 1.99262e-54 1.96573e-54 1.94001e-54 1.91318e-54 1.8825e-54 1.84523e-54 1.7991e-54 1.74262e-54 1.67525e-54 1.59741e-54 1.51026e-54 1.41546e-54 1.31484e-54 1.21017e-54 1.10305e-54 9.94842e-55 8.86801e-55 7.80168e-55 6.7628e-55 5.76613e-55 4.82726e-55 3.96145e-55 3.18188e-55 2.49812e-55 1.91491e-55 1.43182e-55 1.04354e-55 7.40924e-56 5.12268e-56 3.44796e-56 2.2589e-56 1.44037e-56 8.93917e-57 5.40012e-57 3.17579e-57 1.81853e-57 1.01415e-57 5.50949e-58 2.91649e-58 1.5048e-58 7.57009e-59 3.71418e-59 1.77791e-59 8.30582e-60 3.78819e-60 1.68734e-60 7.34253e-61 3.12253e-61 1.29817e-61 5.278e-62 2.09924e-62 8.17062e-63 3.11306e-63 1.16144e-63 4.24448e-64 1.51985e-64 5.33409e-65 1.8354e-65 6.19357e-66 2.05029e-66 6.66e-67 2.12343e-67 6.64701e-68 2.04339e-68 6.17056e-69 1.83087e-69 5.33895e-70 1.53047e-70 4.31387e-71 1.19585e-71 3.2602e-72 8.71165e-73 2.15698e-73 0 
0 2.76913e-104 1.87046e-103 1.22447e-102 7.93304e-102 5.08849e-101 3.23118e-100 2.03102e-99 1.2636e-98 7.78047e-98 4.7409e-97 2.85845e-96 1.70519e-95 1.00634e-94 5.87483e-94 3.39222e-93 1.93714e-92 1.09391e-91 6.10792e-91 3.37169e-90 1.8399e-89 9.9239e-89 5.29002e-88 2.78654e-87 1.45029e-86 7.457e-86 3.78739e-85 1.89987e-84 9.41139e-84 4.60332e-83 2.22287e-82 1.05954e-81 4.98444e-81 2.31391e-80 1.05984e-79 4.78877e-79 2.13419e-78 9.37975e-78 4.06468e-77 1.73645e-76 7.31178e-76 3.03409e-75 1.2405e-74 4.99631e-74 1.98197e-73 7.74207e-73 2.97741e-72 1.12707e-71 4.19861e-71 1.53888e-70 5.54817e-70 1.96718e-69 6.85782e-69 2.35002e-68 7.91396e-68 2.61846e-67 8.50971e-67 2.71574e-66 8.50843e-66 2.61625e-65 7.8933e-65 2.33594e-64 6.77895e-64 1.92856e-63 5.37699e-63 1.46875e-62 3.9294e-62 1.02927e-61 2.6389e-61 6.61999e-61 1.62439e-60 3.89742e-60 9.14043e-60 2.09464e-59 4.68876e-59 1.02485e-58 2.18658e-58 4.55223e-58 9.24463e-58 1.83069e-57 3.53396e-57 6.64794e-57 1.21832e-56 2.17451e-56 3.77894e-56 6.39267e-56 1.05247e-55 1.68605e-55 2.62795e-55 3.98484e-55 5.87825e-55 8.4363e-55 1.17811e-54 1.60123e-54 2.11888e-54 2.73123e-54 3.43145e-54 4.20542e-54 5.03235e-54 5.88656e-54 6.74004e-54 7.5655e-54 8.3392e-54 9.04318e-54 9.66653e-54 1.02054e-53 1.06622e-53 1.10438e-53 1.13595e-53 1.16194e-53 1.18319e-53 1.20029e-53 1.21348e-53 1.22261e-53 1.22717e-53 1.22642e-53 1.21949e-53 1.20567e-53 1.18454e-53 1.15628e-53 1.12178e-53 1.0827e-53 1.04142e-53 1.00082e-53 9.63986e-54 9.3384e-54 9.12738e-54 9.02182e-54 9.02636e-54 9.13501e-54 9.33249e-54 9.59679e-54 9.90244e-54 1.02238e-53 1.0538e-53 1.08267e-53 1.10769e-53 1.12811e-53 1.14365e-53 1.15441e-53 1.16071e-53 1.16309e-53 1.16218e-53 1.15865e-53 1.15324e-53 1.14665e-53 1.13958e-53 1.13264e-53 1.12633e-53 1.12108e-53 1.11718e-53 1.11487e-53 1.11433e-53 1.11572e-53 1.11918e-53 1.12485e-53 1.13278e-53 1.14295e-53 1.15517e-53 1.16911e-53 1.18432e-53 1.2003e-53 1.21658e-53 1.23283e-53 1.24889e-53 1.26481e-53 1.28074e-53 1.29682e-53 1.31303e-53 1.32902e-53 1.34409e-53 1.35716e-53 1.36697e-53 1.3723e-53 1.3722e-53 1.36627e-53 1.35474e-53 1.33852e-53 1.31902e-53 1.29791e-53 1.27675e-53 1.25677e-53 1.23852e-53 1.22186e-53 1.20591e-53 1.18929e-53 1.17027e-53 1.14718e-53 1.11858e-53 1.08357e-53 1.0418e-53 9.93538e-54 9.3949e-54 8.8068e-54 8.1824e-54 7.53267e-54 6.8674e-54 6.19508e-54 5.52345e-54 4.86024e-54 4.21379e-54 3.59333e-54 3.00864e-54 2.46927e-54 1.98351e-54 1.55735e-54 1.19382e-54 8.92657e-55 6.50588e-55 4.61912e-55 3.19349e-55 2.14935e-55 1.40804e-55 8.97754e-56 5.57112e-56 3.36517e-56 1.97883e-56 1.13299e-56 6.31768e-57 3.43171e-57 1.81636e-57 9.37047e-58 4.71327e-58 2.31218e-58 1.10664e-58 5.16912e-59 2.35723e-59 1.04981e-59 4.56763e-60 1.94218e-60 8.07336e-61 3.28195e-61 1.30517e-61 5.07927e-62 1.93498e-62 7.21828e-63 2.63759e-63 9.44352e-64 3.31394e-64 1.14017e-64 3.84711e-65 1.2734e-65 4.13605e-66 1.3186e-66 4.1273e-67 1.2687e-67 3.83091e-68 1.1366e-68 3.31421e-69 9.50008e-70 2.67762e-70 7.42233e-71 2.02345e-71 5.40676e-72 1.33867e-72 0 
0 1.70424e-103 1.15099e-102 7.53362e-102 4.88013e-101 3.12979e-100 1.98712e-99 1.24886e-98 7.76872e-98 4.78284e-97 2.91394e-96 1.75668e-95 1.0478e-94 6.18293e-94 3.60905e-93 2.08367e-92 1.18975e-91 6.71775e-91 3.75048e-90 2.07012e-89 1.12953e-88 6.09171e-88 3.24692e-87 1.71017e-86 8.89994e-86 4.57572e-85 2.3238e-84 1.1656e-83 5.77359e-83 2.82379e-82 1.36347e-81 6.49863e-81 3.05701e-80 1.41907e-79 6.4994e-79 2.93657e-78 1.30867e-77 5.75141e-77 2.49228e-76 1.06469e-75 4.48305e-75 1.86026e-74 7.60569e-74 3.06329e-73 1.21517e-72 4.74679e-72 1.82552e-71 6.91049e-71 2.57438e-70 9.43592e-70 3.40209e-69 1.20631e-68 4.20554e-68 1.44122e-67 4.85377e-67 1.60605e-66 5.21987e-66 1.66597e-65 5.21994e-65 1.60522e-64 4.84346e-64 1.43352e-63 4.16054e-63 1.18377e-62 3.30085e-62 9.01758e-62 2.4128e-61 6.32098e-61 1.62082e-60 4.0666e-60 9.97993e-60 2.39484e-59 5.61735e-59 1.28748e-58 2.88241e-58 6.30121e-58 1.34461e-57 2.79977e-57 5.68663e-57 1.12628e-56 2.17449e-56 4.09116e-56 7.49864e-56 1.33857e-55 2.32652e-55 3.93616e-55 6.4811e-55 1.03839e-54 1.61863e-54 2.45459e-54 3.62117e-54 5.19734e-54 7.25833e-54 9.86554e-54 1.30553e-53 1.68284e-53 2.11428e-53 2.59111e-53 3.10052e-53 3.62666e-53 4.15225e-53 4.66048e-53 5.13671e-53 5.56989e-53 5.95331e-53 6.28463e-53 6.56535e-53 6.79972e-53 6.99358e-53 7.15302e-53 7.28336e-53 7.38822e-53 7.46907e-53 7.525e-53 7.55294e-53 7.54824e-53 7.5057e-53 7.42078e-53 7.29107e-53 7.11758e-53 6.90576e-53 6.66582e-53 6.41236e-53 6.1631e-53 5.93701e-53 5.75197e-53 5.62249e-53 5.55779e-53 5.56071e-53 5.62756e-53 5.74895e-53 5.91136e-53 6.09913e-53 6.29654e-53 6.4895e-53 6.66674e-53 6.82033e-53 6.94568e-53 7.04108e-53 7.10705e-53 7.14573e-53 7.16031e-53 7.15466e-53 7.133e-53 7.09977e-53 7.05938e-53 7.016e-53 6.97341e-53 6.93476e-53 6.90255e-53 6.87867e-53 6.86451e-53 6.86118e-53 6.86966e-53 6.89087e-53 6.92559e-53 6.97421e-53 7.03651e-53 7.11139e-53 7.19685e-53 7.29011e-53 7.38808e-53 7.4879e-53 7.5875e-53 7.68598e-53 7.78357e-53 7.88126e-53 7.9799e-53 8.07934e-53 8.17748e-53 8.26993e-53 8.35017e-53 8.41044e-53 8.44318e-53 8.44262e-53 8.40622e-53 8.3355e-53 8.23599e-53 8.11635e-53 7.98678e-53 7.85698e-53 7.73434e-53 7.62237e-53 7.52014e-53 7.42233e-53 7.32032e-53 7.20366e-53 7.06194e-53 6.88647e-53 6.67157e-53 6.4152e-53 6.11887e-53 5.78699e-53 5.42577e-53 5.04214e-53 4.6428e-53 4.23372e-53 3.8201e-53 3.40669e-53 2.99825e-53 2.59993e-53 2.21746e-53 1.85689e-53 1.52417e-53 1.22443e-53 9.61419e-54 7.37019e-54 5.51101e-54 4.01652e-54 2.85162e-54 1.97143e-54 1.32678e-54 8.6911e-55 5.54091e-55 3.43815e-55 2.07655e-55 1.22094e-55 6.98973e-56 3.89704e-56 2.11655e-56 1.1201e-56 5.7777e-57 2.9057e-57 1.42523e-57 6.82026e-58 3.18526e-58 1.45232e-58 6.46702e-59 2.81331e-59 1.19605e-59 4.97105e-60 2.02051e-60 8.03401e-61 3.12612e-61 1.19075e-61 4.44139e-62 1.62269e-62 5.80909e-63 2.03829e-63 7.01197e-64 2.36569e-64 7.82966e-65 2.54284e-65 8.10599e-66 2.537e-66 7.79787e-67 2.35443e-67 6.9849e-68 2.0366e-68 5.83749e-69 1.64522e-69 4.56031e-70 1.24317e-70 3.32168e-71 8.22398e-72 0 