# vtk DataFile Version 3.0
Gray-Scott Simulation Output
ASCII
DATASET STRUCTURED_POINTS
DIMENSIONS 256 256 1
SPACING 1.0 1.0 1.0
ORIGIN 0 0 0
POINT_DATA 65536
SCALARS u double
LOOKUP_TABLE default
0 0 0 0 0 0 0 0 0 0 0 0 0 0 0 0 0 0 0 0 0 0 0 0 0 0 0 0 0 0 0 0 0 0 0 0 0 0 0 0 0 0 0 0 0 0 0 0 0 0 0 0 0 0 0 0 0 0 0 0 0 0 0 0 0 0 0 0 0 0 0 0 0 0 0 0 0 0 0 0 0 0 0 0 0 0 0 0 0 0 0 0 0 0 0 0 0 0 0 0 0 0 0 0 0 0 0 0 0 0 0 0 0 0 0 0 0 0 0 0 0 0 0 0 0 0 0 0 0 0 0 0 0 0 0 0 0 0 0 0 0 0 0 0 0 0 0 0 0 0 0 0 0 0 0 0 0 0 0 0 0 0 0 0 0 0 0 0 0 0 0 0 0 0 0 0 0 0 0 0 0 0 0 0 0 0 0 0 0 0 0 0 0 0 0 0 0 0 0 0 0 0 0 0 0 0 0 0 0 0 0 0 0 0 0 0 0 0 0 0 0 0 0 0 0 0 0 0 0 0 0 0 0 0 0 0 0 0 0 0 0 0 0 0 0 0 0 0 0 0 0 0 0 0 0 0 
0 3.16471e-93 1.58432e-92 7.55323e-92 3.56168e-91 1.66363e-90 7.69716e-90 3.52732e-89 1.6009e-88 7.19536e-88 3.20239e-87 1.41122e-86 6.15704e-86 2.65933e-85 1.13699e-84 4.81154e-84 2.01519e-83 8.35243e-83 3.42557e-82 1.39006e-81 5.58051e-81 2.2162e-80 8.70558e-80 3.38216e-79 1.29943e-78 4.93657e-78 1.85425e-77 6.88546e-77 2.52738e-76 9.1692e-76 3.2875e-75 1.16473e-74 4.0771e-74 1.40993e-73 4.81622e-73 1.62489e-72 5.41374e-72 1.78101e-71 5.78465e-71 1.85467e-70 5.86921e-70 1.83296e-69 5.64841e-69 1.71726e-68 5.15015e-68 1.5234e-67 4.44373e-67 1.27808e-66 3.62393e-66 1.01284e-65 2.78977e-65 7.57175e-65 2.02465e-64 5.33283e-64 1.38339e-63 3.53375e-63 8.887e-63 2.20002e-62 5.36006e-62 1.28501e-61 3.03083e-61 7.03154e-61 1.60433e-60 3.59924e-60 7.93812e-60 1.72082e-59 3.66589e-59 7.67305e-59 1.57769e-58 3.18606e-58 6.31811e-58 1.2301e-57 2.35091e-57 4.40954e-57 8.11594e-57 1.46554e-56 2.59597e-56 4.51e-56 7.68357e-56 1.28351e-55 2.10201e-55 3.37454e-55 5.31005e-55 8.18939e-55 1.23779e-54 1.83346e-54 2.66144e-54 3.78611e-54 5.27862e-54 7.21338e-54 9.66283e-54 1.2691e-53 1.6346e-53 2.06527e-53 2.56062e-53 3.11675e-53 3.72617e-53 4.37803e-53 5.05871e-53 5.75271e-53 6.44379e-53 7.11619e-53 7.75576e-53 8.35089e-53 8.89308e-53 9.37712e-53 9.80091e-53 1.01649e-52 1.04713e-52 1.07234e-52 1.09244e-52 1.10772e-52 1.11837e-52 1.12449e-52 1.12607e-52 1.12309e-52 1.11557e-52 1.10362e-52 1.08754e-52 1.0679e-52 1.0455e-52 1.02145e-52 9.97018e-53 9.73635e-53 9.52716e-53 9.35554e-53 9.23191e-53 9.16318e-53 9.15211e-53 9.19716e-53 9.29277e-53 9.43012e-53 9.59813e-53 9.78466e-53 9.9776e-53 1.01659e-52 1.03402e-52 1.04936e-52 1.06214e-52 1.07213e-52 1.07931e-52 1.08383e-52 1.08598e-52 1.08613e-52 1.08473e-52 1.08222e-52 1.07905e-52 1.07566e-52 1.07243e-52 1.06972e-52 1.0678e-52 1.06694e-52 1.0673e-52 1.06905e-52 1.07227e-52 1.077e-52 1.08322e-52 1.09088e-52 1.09985e-52 1.10997e-52 1.12108e-52 1.13296e-52 1.14542e-52 1.15827e-52 1.17133e-52 1.18442e-52 1.19733e-52 1.20982e-52 1.22159e-52 1.23226e-52 1.24142e-52 1.24861e-52 1.25341e-52 1.25547e-52 1.25455e-52 1.25062e-52 1.24381e-52 1.23441e-52 1.22285e-52 1.20959e-52 1.19507e-52 1.17962e-52 1.16337e-52 1.14625e-52 1.12797e-52 1.10809e-52 1.08602e-52 1.06117e-52 1.03298e-52 1.00101e-52 9.65e-53 9.24862e-53 8.8071e-53 8.32831e-53 7.81654e-53 7.27723e-53 6.7167e-53 6.1419e-53 5.56029e-53 4.97972e-53 4.40825e-53 3.85397e-53 3.32473e-53 2.82772e-53 2.36913e-53 1.9538e-53 1.58488e-53 1.26374e-53 9.8997e-54 7.61502e-54 5.74943e-54 4.25923e-54 3.09506e-54 2.20567e-54 1.54126e-54 1.0559e-54 7.09161e-55 4.66908e-55 3.01356e-55 1.90679e-55 1.18283e-55 7.19399e-56 4.2903e-56 2.50914e-56 1.43924e-56 8.0979e-57 4.47001e-57 2.42107e-57 1.28688e-57 6.71396e-58 3.43876e-58 1.72935e-58 8.54093e-59 4.14328e-59 1.97461e-59 9.24697e-60 4.25576e-60 1.92529e-60 8.56323e-61 3.74526e-61 1.61106e-61 6.81717e-62 2.83818e-62 1.16278e-62 4.68873e-63 1.86119e-63 7.27407e-64 2.79959e-64 1.06124e-64 3.96286e-65 1.45796e-65 5.28497e-66 1.88584e-66 6.56367e-67 2.04304e-67 0 
0 1.58175e-92 7.9185e-92 3.77511e-91 1.78013e-90 8.3148e-90 3.84705e-89 1.76297e-88 8.00143e-88 3.59635e-87 1.60063e-86 7.05373e-86 3.07757e-85 1.32929e-84 5.68351e-84 2.40525e-83 1.00742e-82 4.17564e-82 1.71263e-81 6.95003e-81 2.7903e-80 1.10818e-79 4.35339e-79 1.69142e-78 6.49892e-78 2.46915e-77 9.27527e-77 3.44451e-76 1.26446e-75 4.58783e-75 1.64507e-74 5.82891e-74 2.04062e-73 7.05761e-73 2.41112e-72 8.13564e-72 2.71094e-71 8.91967e-71 2.89747e-70 9.29121e-70 2.94069e-69 9.18523e-69 2.83095e-68 8.60824e-68 2.58209e-67 7.63907e-67 2.22871e-66 6.4113e-66 1.81823e-65 5.08269e-65 1.40026e-64 3.80124e-64 1.01665e-63 2.67837e-63 6.94947e-63 1.77558e-62 4.46639e-62 1.10593e-61 2.69507e-61 6.46266e-61 1.52464e-60 3.53803e-60 8.07439e-60 1.81189e-59 3.99711e-59 8.66702e-59 1.8468e-58 3.86649e-58 7.95198e-58 1.60625e-57 3.18605e-57 6.20455e-57 1.18606e-56 2.22518e-56 4.09647e-56 7.39885e-56 1.31087e-55 2.27785e-55 3.8815e-55 6.48514e-55 1.06226e-54 1.70563e-54 2.68434e-54 4.14051e-54 6.25903e-54 9.27218e-54 1.34608e-53 1.91507e-53 2.67019e-53 3.64908e-53 4.88837e-53 6.42038e-53 8.26942e-53 1.0448e-52 1.29534e-52 1.57657e-52 1.88469e-52 2.21419e-52 2.55816e-52 2.90874e-52 3.25771e-52 3.59711e-52 3.91978e-52 4.21986e-52 4.4931e-52 4.73688e-52 4.95017e-52 5.13323e-52 5.28723e-52 5.41383e-52 5.51472e-52 5.59137e-52 5.64475e-52 5.67532e-52 5.68313e-52 5.66805e-52 5.6301e-52 5.56989e-52 5.48895e-52 5.39005e-52 5.27733e-52 5.15623e-52 5.03327e-52 4.91557e-52 4.81029e-52 4.72392e-52 4.66171e-52 4.62715e-52 4.62163e-52 4.64436e-52 4.69254e-52 4.76172e-52 4.84634e-52 4.94025e-52 5.03738e-52 5.13215e-52 5.21989e-52 5.29706e-52 5.36134e-52 5.41157e-52 5.44766e-52 5.47037e-52 5.48115e-52 5.48189e-52 5.47479e-52 5.46213e-52 5.44619e-52 5.42912e-52 5.41289e-52 5.39921e-52 5.38957e-52 5.38519e-52 5.38703e-52 5.3958e-52 5.41196e-52 5.43571e-52 5.46699e-52 5.50545e-52 5.55052e-52 5.60142e-52 5.65723e-52 5.71695e-52 5.77959e-52 5.84421e-52 5.90989e-52 5.97572e-52 6.04066e-52 6.1035e-52 6.16271e-52 6.21643e-52 6.26253e-52 6.29874e-52 6.32292e-52 6.33329e-52 6.32873e-52 6.30898e-52 6.2747e-52 6.22742e-52 6.16925e-52 6.10256e-52 6.02956e-52 5.95186e-52 5.87015e-52 5.7841e-52 5.69227e-52 5.59234e-52 5.48146e-52 5.35658e-52 5.21489e-52 5.0542e-52 4.87311e-52 4.67123e-52 4.44908e-52 4.2081e-52 3.95041e-52 3.67874e-52 3.39623e-52 3.10639e-52 2.81295e-52 2.51987e-52 2.23124e-52 1.95114e-52 1.68356e-52 1.43216e-52 1.20011e-52 9.89861e-53 8.03052e-53 6.40397e-53 5.017e-53 3.85935e-53 2.91392e-53 2.15867e-53 1.56861e-53 1.11781e-53 7.81047e-54 5.35042e-54 3.59311e-54 2.36542e-54 1.52652e-54 9.65748e-55 5.98986e-55 3.64245e-55 2.17188e-55 1.26997e-55 7.2831e-56 4.09703e-56 2.26107e-56 1.22439e-56 6.50666e-57 3.39391e-57 1.7379e-57 8.73791e-58 4.31447e-58 2.0925e-58 9.97013e-59 4.66784e-59 2.14778e-59 9.71421e-60 4.31963e-60 1.88882e-60 8.12304e-61 3.43646e-61 1.43037e-61 5.85879e-62 2.36194e-62 9.37364e-63 3.66271e-63 1.40937e-63 5.3414e-64 1.99417e-64 7.33519e-65 2.65842e-65 9.48423e-66 3.3004e-66 1.02715e-66 0 
0 7.52752e-92 3.76838e-91 1.79655e-90 8.47152e-90 3.95697e-89 1.8308e-88 8.39001e-88 3.80796e-87 1.71157e-86 7.61785e-86 3.35715e-85 1.46478e-84 6.32701e-84 2.70528e-83 1.14491e-82 4.79558e-82 1.98783e-81 8.15345e-81 3.30895e-80 1.32856e-79 5.27683e-79 2.0731e-78 8.05524e-78 3.09531e-77 1.17611e-76 4.41842e-76 1.64101e-75 6.02465e-75 2.18616e-74 7.83986e-74 2.77819e-73 9.72729e-73 3.36467e-72 1.14964e-71 3.87969e-71 1.29297e-70 4.25484e-70 1.38236e-69 4.43349e-69 1.40345e-68 4.38443e-68 1.35156e-67 4.11052e-67 1.23321e-66 3.64915e-66 1.06486e-65 3.06391e-65 8.69104e-65 2.43003e-64 6.69614e-64 1.8182e-63 4.86394e-63 1.28172e-62 3.32644e-62 8.50109e-62 2.13896e-61 5.29765e-61 1.29134e-60 3.09739e-60 7.30919e-60 1.6966e-59 3.87299e-59 8.69335e-59 1.91832e-58 4.16068e-58 8.8682e-58 1.85717e-57 3.82058e-57 7.71946e-57 1.53159e-56 2.98344e-56 5.70465e-56 1.07053e-55 1.97131e-55 3.56138e-55 6.31128e-55 1.09695e-54 1.86963e-54 3.12442e-54 5.1188e-54 8.22062e-54 1.294e-53 1.99628e-53 3.01814e-53 4.47169e-53 6.49249e-53 9.23775e-53 1.28812e-52 1.76045e-52 2.35842e-52 3.09761e-52 3.98969e-52 5.04062e-52 6.24907e-52 7.6053e-52 9.09086e-52 1.06791e-51 1.23365e-51 1.40251e-51 1.57053e-51 1.73385e-51 1.88905e-51 2.03329e-51 2.16454e-51 2.28156e-51 2.38387e-51 2.47161e-51 2.54536e-51 2.60594e-51 2.65419e-51 2.69081e-51 2.71629e-51 2.73084e-51 2.73451e-51 2.72721e-51 2.70896e-51 2.68005e-51 2.6412e-51 2.59375e-51 2.53967e-51 2.48156e-51 2.42257e-51 2.3661e-51 2.31559e-51 2.27416e-51 2.24433e-51 2.22777e-51 2.22515e-51 2.23608e-51 2.25922e-51 2.29244e-51 2.33306e-51 2.37813e-51 2.42474e-51 2.4702e-51 2.51228e-51 2.54929e-51 2.5801e-51 2.60418e-51 2.62146e-51 2.63233e-51 2.63748e-51 2.63782e-51 2.6344e-51 2.62832e-51 2.62067e-51 2.61248e-51 2.60469e-51 2.59812e-51 2.5935e-51 2.59139e-51 2.59226e-51 2.59645e-51 2.60418e-51 2.61555e-51 2.63053e-51 2.64895e-51 2.67054e-51 2.69492e-51 2.72165e-51 2.75026e-51 2.78028e-51 2.81124e-51 2.84272e-51 2.87427e-51 2.9054e-51 2.93553e-51 2.96393e-51 2.9897e-51 3.01182e-51 3.0292e-51 3.04081e-51 3.0458e-51 3.04363e-51 3.03417e-51 3.01774e-51 2.99507e-51 2.96718e-51 2.93521e-51 2.90022e-51 2.86298e-51 2.82384e-51 2.78262e-51 2.73864e-51 2.6908e-51 2.6377e-51 2.5779e-51 2.51004e-51 2.43306e-51 2.34629e-51 2.24951e-51 2.14299e-51 2.02739e-51 1.90372e-51 1.77327e-51 1.63755e-51 1.49822e-51 1.35708e-51 1.21603e-51 1.07704e-51 9.42073e-52 8.1307e-52 6.91807e-52 5.79822e-52 4.78321e-52 3.88104e-52 3.09528e-52 2.4251e-52 1.86562e-52 1.40863e-52 1.04353e-52 7.58271e-53 5.40329e-53 3.77517e-53 2.58589e-53 1.73638e-53 1.14295e-53 7.37497e-54 4.66502e-54 2.89289e-54 1.75885e-54 1.04854e-54 6.12986e-55 3.51464e-55 1.97668e-55 1.09064e-55 5.90448e-56 3.13698e-56 1.63586e-56 8.37452e-57 4.2095e-57 2.07796e-57 1.00754e-57 4.79934e-58 2.24637e-58 1.03334e-58 4.67244e-59 2.07715e-59 9.08026e-60 3.90403e-60 1.65118e-60 6.871e-61 2.81365e-61 1.13402e-61 4.4994e-62 1.7577e-62 6.76183e-63 2.56207e-63 9.56308e-64 3.51682e-64 1.27428e-64 4.54519e-65 1.58135e-65 4.92066e-66 0 
0 3.54308e-91 1.77371e-90 8.45605e-90 3.9874e-89 1.86249e-88 8.61742e-88 3.94916e-87 1.79243e-86 8.05661e-86 3.58593e-85 1.58035e-84 6.89555e-84 2.9786e-83 1.27363e-82 5.39043e-82 2.25795e-81 9.35999e-81 3.83941e-80 1.55826e-79 6.25695e-79 2.48534e-78 9.76488e-78 3.79456e-77 1.45823e-76 5.54129e-76 2.08196e-75 7.73324e-75 2.83943e-74 1.03046e-73 3.69581e-73 1.30984e-72 4.58674e-72 1.58677e-71 5.42247e-71 1.83019e-70 6.10035e-70 2.00779e-69 6.52423e-69 2.0928e-68 6.62608e-68 2.0704e-67 6.38347e-67 1.9418e-66 5.82684e-66 1.72456e-65 5.03353e-65 1.44861e-64 4.11002e-64 1.14943e-63 3.16811e-63 8.60441e-63 2.30237e-62 6.0686e-62 1.57539e-61 4.02714e-61 1.01354e-60 2.51095e-60 6.1223e-60 1.46889e-59 3.46725e-59 8.05042e-59 1.83827e-58 4.12739e-58 9.11034e-58 1.97653e-57 4.21406e-57 8.82761e-57 1.81655e-56 3.67138e-56 7.28635e-56 1.41973e-55 2.71543e-55 5.09717e-55 9.38857e-55 1.69659e-54 3.00736e-54 5.22829e-54 8.91318e-54 1.48985e-53 2.44138e-53 3.92156e-53 6.17404e-53 9.52646e-53 1.44051e-52 2.13457e-52 3.09957e-52 4.41064e-52 6.15076e-52 8.40662e-52 1.12625e-51 1.47928e-51 1.90528e-51 2.4071e-51 2.98403e-51 3.6314e-51 4.34032e-51 5.09801e-51 5.88844e-51 6.69345e-51 7.49407e-51 8.27192e-51 9.01062e-51 9.69677e-51 1.03207e-50 1.08765e-50 1.13621e-50 1.17782e-50 1.21277e-50 1.24145e-50 1.26427e-50 1.28158e-50 1.29361e-50 1.30046e-50 1.30216e-50 1.29866e-50 1.28998e-50 1.27624e-50 1.25779e-50 1.23526e-50 1.20958e-50 1.18199e-50 1.15398e-50 1.12717e-50 1.10319e-50 1.08352e-50 1.06936e-50 1.06151e-50 1.06028e-50 1.06548e-50 1.07648e-50 1.09227e-50 1.11156e-50 1.13297e-50 1.1551e-50 1.17668e-50 1.19666e-50 1.21422e-50 1.22884e-50 1.24025e-50 1.24845e-50 1.25359e-50 1.25603e-50 1.25618e-50 1.25455e-50 1.25166e-50 1.24802e-50 1.24413e-50 1.24043e-50 1.23731e-50 1.23512e-50 1.23411e-50 1.23452e-50 1.2365e-50 1.24017e-50 1.24555e-50 1.25265e-50 1.26138e-50 1.27161e-50 1.28317e-50 1.29584e-50 1.3094e-50 1.32363e-50 1.33832e-50 1.35324e-50 1.36821e-50 1.38298e-50 1.39728e-50 1.41075e-50 1.42299e-50 1.43349e-50 1.44175e-50 1.44727e-50 1.44965e-50 1.44862e-50 1.44414e-50 1.43635e-50 1.42559e-50 1.41236e-50 1.39719e-50 1.38059e-50 1.36293e-50 1.34438e-50 1.32484e-50 1.304e-50 1.28133e-50 1.25617e-50 1.22784e-50 1.19568e-50 1.15919e-50 1.11804e-50 1.07214e-50 1.0216e-50 9.66721e-51 9.07988e-51 8.46006e-51 7.81481e-51 7.15201e-51 6.48019e-51 5.80835e-51 5.14588e-51 4.50225e-51 3.88669e-51 3.30776e-51 2.77287e-51 2.28785e-51 1.8566e-51 1.48087e-51 1.16034e-51 8.92688e-52 6.74041e-52 4.99337e-52 3.62828e-52 2.58532e-52 1.80618e-52 1.23706e-52 8.30572e-53 5.46642e-53 3.52671e-53 2.23044e-53 1.3829e-53 8.40624e-54 5.01036e-54 2.92846e-54 1.67869e-54 9.43893e-55 5.20668e-55 2.81808e-55 1.49683e-55 7.80353e-56 3.99382e-56 2.00697e-56 9.90442e-57 4.80101e-57 2.2863e-57 1.06982e-57 4.91985e-58 2.22399e-58 9.88412e-59 4.31965e-59 1.85671e-59 7.85068e-60 3.266e-60 1.33706e-60 5.38754e-61 2.13703e-61 8.3462e-62 3.20997e-62 1.21596e-62 4.53756e-63 1.66829e-63 6.04349e-64 2.15514e-64 7.49654e-65 2.33228e-65 0 
0 1.65186e-90 8.26943e-90 3.94241e-89 1.85903e-88 8.68352e-88 4.01777e-87 1.84128e-86 8.35729e-86 3.75654e-85 1.67205e-84 7.36912e-84 3.21549e-83 1.38902e-82 5.93964e-82 2.51399e-81 1.05312e-80 4.36581e-80 1.79094e-79 7.26924e-79 2.91906e-78 1.15958e-77 4.55636e-77 1.77073e-76 6.80543e-76 2.58634e-75 9.71834e-75 3.61018e-74 1.32571e-73 4.81172e-73 1.72598e-72 6.1179e-72 2.14264e-71 7.41349e-71 2.53379e-70 8.55335e-70 2.85145e-69 9.38649e-69 3.05063e-68 9.78741e-68 3.0994e-67 9.68629e-67 2.98708e-66 9.08834e-66 2.72775e-65 8.07502e-65 2.35741e-64 6.78599e-64 1.92579e-63 5.38708e-63 1.48517e-62 4.03467e-62 1.07988e-61 2.8471e-61 7.39295e-61 1.89036e-60 4.75892e-60 1.17932e-59 2.87628e-59 6.90292e-59 1.62988e-58 3.78545e-58 8.64644e-58 1.94193e-57 4.2877e-57 9.30521e-57 1.98452e-56 4.15842e-56 8.5598e-56 1.73052e-55 3.43547e-55 6.69594e-55 1.28106e-54 2.40539e-54 4.43177e-54 8.01073e-54 1.42036e-53 2.46992e-53 4.21175e-53 7.04167e-53 1.15416e-52 1.8543e-52 2.91995e-52 4.50625e-52 6.81509e-52 1.01001e-51 1.46681e-51 2.08747e-51 2.91129e-51 3.97929e-51 5.33137e-51 7.00261e-51 9.01922e-51 1.13944e-50 1.41247e-50 1.71876e-50 2.0541e-50 2.41239e-50 2.78604e-50 3.16642e-50 3.54454e-50 3.91171e-50 4.26019e-50 4.58366e-50 4.87757e-50 5.13921e-50 5.36758e-50 5.56312e-50 5.72721e-50 5.86176e-50 5.96874e-50 6.04979e-50 6.10604e-50 6.13802e-50 6.14578e-50 6.12918e-50 6.08822e-50 6.02351e-50 5.93666e-50 5.83061e-50 5.70976e-50 5.57995e-50 5.44814e-50 5.32198e-50 5.20914e-50 5.11661e-50 5.05002e-50 5.0131e-50 5.00734e-50 5.03189e-50 5.08372e-50 5.15806e-50 5.24891e-50 5.34968e-50 5.45383e-50 5.55538e-50 5.64934e-50 5.73193e-50 5.80065e-50 5.8543e-50 5.89279e-50 5.91695e-50 5.92834e-50 5.92902e-50 5.92131e-50 5.90768e-50 5.89055e-50 5.87224e-50 5.85482e-50 5.84015e-50 5.8298e-50 5.82506e-50 5.82695e-50 5.83625e-50 5.85343e-50 5.87872e-50 5.91205e-50 5.95305e-50 6.00111e-50 6.05541e-50 6.11495e-50 6.17868e-50 6.24555e-50 6.31454e-50 6.3847e-50 6.45505e-50 6.5245e-50 6.59173e-50 6.65513e-50 6.71269e-50 6.76214e-50 6.80103e-50 6.82704e-50 6.83826e-50 6.83348e-50 6.81241e-50 6.77578e-50 6.7252e-50 6.66298e-50 6.59167e-50 6.51364e-50 6.43064e-50 6.34344e-50 6.25168e-50 6.15382e-50 6.04738e-50 5.92928e-50 5.79623e-50 5.6452e-50 5.47378e-50 5.28045e-50 5.06469e-50 4.82703e-50 4.56888e-50 4.29245e-50 4.00058e-50 3.69656e-50 3.38407e-50 3.06713e-50 2.74997e-50 2.43704e-50 2.13281e-50 1.84167e-50 1.56771e-50 1.31447e-50 1.08474e-50 8.80395e-51 7.02309e-51 5.50339e-51 4.23419e-51 3.19719e-51 2.36851e-51 1.72096e-51 1.22619e-51 8.56589e-52 5.86625e-52 3.93817e-52 2.59155e-52 1.6717e-52 1.05707e-52 6.55268e-53 3.98238e-53 2.37309e-53 1.38671e-53 7.9472e-54 4.46744e-54 2.46368e-54 1.3331e-54 7.07886e-55 3.68947e-55 1.88773e-55 9.48351e-56 4.67878e-56 2.26731e-56 1.07941e-56 5.04939e-57 2.32141e-57 1.04908e-57 4.66109e-58 2.03644e-58 8.75074e-59 3.699e-59 1.53841e-59 6.29633e-60 2.53634e-60 1.0058e-60 3.92711e-61 1.50998e-61 5.71848e-62 2.1334e-62 7.84179e-63 2.84005e-63 1.01254e-63 3.52128e-64 1.09532e-64 0 
0 7.62827e-90 3.81882e-89 1.82061e-88 8.58514e-88 4.01017e-87 1.85549e-86 8.50359e-86 3.85975e-85 1.73498e-84 7.72274e-84 3.40372e-83 1.48527e-82 6.41631e-82 2.74384e-81 1.16141e-80 4.8655e-80 2.01717e-79 8.27541e-79 3.35914e-78 1.34902e-77 5.35934e-77 2.10605e-76 8.18546e-76 3.14624e-75 1.19582e-74 4.49388e-74 1.66959e-73 6.13172e-73 2.22582e-72 7.98516e-72 2.83081e-71 9.91565e-71 3.43132e-70 1.17294e-69 3.96018e-69 1.32044e-68 4.34743e-68 1.41319e-67 4.53481e-67 1.43633e-66 4.48975e-66 1.38485e-65 4.21437e-65 1.26517e-64 3.74617e-64 1.09391e-63 3.14965e-63 8.94057e-63 2.50161e-62 6.89851e-62 1.87457e-61 5.01862e-61 1.32352e-60 3.43771e-60 8.79267e-60 2.21416e-59 5.48857e-59 1.33903e-58 3.21457e-58 7.59239e-58 1.7639e-57 4.03024e-57 9.05449e-57 1.99982e-56 4.3414e-56 9.26183e-56 1.94137e-55 3.99742e-55 8.08407e-55 1.60537e-54 3.12993e-54 5.98998e-54 1.12504e-53 2.07343e-53 3.74894e-53 6.64896e-53 1.15653e-52 1.97264e-52 3.29889e-52 5.40827e-52 8.69098e-52 1.36884e-51 2.11288e-51 3.196e-51 4.73726e-51 6.8807e-51 9.79325e-51 1.36594e-50 1.86716e-50 2.50169e-50 3.28596e-50 4.23223e-50 5.34661e-50 6.62738e-50 8.06391e-50 9.63621e-50 1.13156e-49 1.30663e-49 1.48478e-49 1.66178e-49 1.83356e-49 1.99649e-49 2.14762e-49 2.28483e-49 2.40688e-49 2.51332e-49 2.60436e-49 2.6807e-49 2.74324e-49 2.79292e-49 2.83052e-49 2.85659e-49 2.87136e-49 2.87487e-49 2.86705e-49 2.8479e-49 2.81769e-49 2.77718e-49 2.72771e-49 2.67135e-49 2.61081e-49 2.54933e-49 2.4905e-49 2.43787e-49 2.39473e-49 2.36368e-49 2.34648e-49 2.34382e-49 2.3553e-49 2.3795e-49 2.4142e-49 2.45659e-49 2.5036e-49 2.55218e-49 2.59953e-49 2.64334e-49 2.68183e-49 2.71385e-49 2.73884e-49 2.75675e-49 2.76799e-49 2.77327e-49 2.77356e-49 2.76995e-49 2.76358e-49 2.75559e-49 2.74704e-49 2.73892e-49 2.73207e-49 2.72724e-49 2.72502e-49 2.72589e-49 2.73021e-49 2.7382e-49 2.74997e-49 2.76548e-49 2.78456e-49 2.80694e-49 2.83222e-49 2.85994e-49 2.88962e-49 2.92076e-49 2.9529e-49 2.98558e-49 3.01835e-49 3.05071e-49 3.08205e-49 3.11161e-49 3.13845e-49 3.16152e-49 3.17966e-49 3.19181e-49 3.19706e-49 3.19485e-49 3.18504e-49 3.16798e-49 3.14441e-49 3.11541e-49 3.08218e-49 3.04583e-49 3.00717e-49 2.96657e-49 2.92385e-49 2.87831e-49 2.82879e-49 2.77384e-49 2.71193e-49 2.64165e-49 2.56186e-49 2.47183e-49 2.37134e-49 2.26059e-49 2.14024e-49 2.01131e-49 1.8751e-49 1.73314e-49 1.58713e-49 1.43894e-49 1.29055e-49 1.14403e-49 1.0015e-49 8.65022e-50 7.36521e-50 6.17676e-50 5.09816e-50 4.13839e-50 3.30167e-50 2.58746e-50 1.99085e-50 1.50331e-50 1.11366e-50 8.09161e-51 5.765e-51 4.02696e-51 2.75753e-51 1.85096e-51 1.21787e-51 7.85462e-52 4.96582e-52 3.07766e-52 1.87004e-52 1.1141e-52 6.50869e-53 3.72917e-53 2.09577e-53 1.15546e-53 6.25045e-54 3.3181e-54 1.72888e-54 8.84328e-55 4.44135e-55 2.19053e-55 1.0612e-55 5.05057e-56 2.3619e-56 1.08553e-56 4.90418e-57 2.17829e-57 9.51416e-58 4.08708e-58 1.72713e-58 7.18102e-59 2.93816e-59 1.18324e-59 4.69086e-60 1.83103e-60 7.03842e-61 2.66482e-61 9.93908e-62 3.65238e-62 1.32244e-62 4.71365e-63 1.63887e-63 5.09688e-64 0 
0 3.48902e-89 1.74666e-88 8.32726e-88 3.92679e-87 1.83426e-86 8.48723e-86 3.88974e-85 1.76559e-84 7.93671e-84 3.53292e-83 1.55716e-82 6.79524e-82 2.93568e-81 1.25547e-80 5.31446e-80 2.22653e-79 9.23154e-79 3.78751e-78 1.53755e-77 6.17523e-77 2.4535e-76 9.6424e-76 3.74804e-75 1.44078e-74 5.47674e-74 2.0584e-73 7.64841e-73 2.80931e-72 1.01992e-71 3.65949e-71 1.29752e-70 4.54558e-70 1.57325e-69 5.37882e-69 1.81635e-68 6.05734e-68 1.9947e-67 6.48524e-67 2.08148e-66 6.5941e-66 2.06166e-65 6.3605e-65 1.93606e-64 5.81348e-64 1.72178e-63 5.02895e-63 1.44833e-62 4.11228e-62 1.15094e-61 3.17471e-61 8.62918e-61 2.31087e-60 6.09603e-60 1.58384e-59 4.05222e-59 1.02074e-58 2.53102e-58 6.17679e-58 1.48331e-57 3.50451e-57 8.14449e-57 1.86149e-56 4.18347e-56 9.24289e-56 2.0072e-55 4.28352e-55 8.98164e-55 1.85e-54 3.74252e-54 7.43448e-54 1.44994e-53 2.77574e-53 5.21505e-53 9.61415e-53 1.73884e-52 3.08483e-52 5.3673e-52 9.15724e-52 1.53178e-51 2.51185e-51 4.03742e-51 6.36036e-51 9.8195e-51 1.48559e-50 2.20236e-50 3.19929e-50 4.55406e-50 6.35249e-50 8.6841e-50 1.16358e-49 1.52839e-49 1.96852e-49 2.48677e-49 3.0823e-49 3.75009e-49 4.4808e-49 5.26102e-49 6.07405e-49 6.90098e-49 7.72216e-49 8.51863e-49 9.27356e-49 9.97331e-49 1.06081e-48 1.11722e-48 1.16638e-48 1.20838e-48 1.24357e-48 1.27237e-48 1.29522e-48 1.3125e-48 1.32446e-48 1.33122e-48 1.33279e-48 1.32914e-48 1.32027e-48 1.30629e-48 1.28756e-48 1.26469e-48 1.23864e-48 1.21066e-48 1.18225e-48 1.15505e-48 1.13073e-48 1.11079e-48 1.09645e-48 1.08851e-48 1.08729e-48 1.09261e-48 1.10381e-48 1.11986e-48 1.13946e-48 1.1612e-48 1.18365e-48 1.20553e-48 1.22577e-48 1.24355e-48 1.25833e-48 1.26986e-48 1.27813e-48 1.2833e-48 1.28573e-48 1.28586e-48 1.28418e-48 1.28123e-48 1.27753e-48 1.27358e-48 1.26982e-48 1.26666e-48 1.26442e-48 1.26339e-48 1.26379e-48 1.26578e-48 1.26946e-48 1.27489e-48 1.28204e-48 1.29084e-48 1.30116e-48 1.31283e-48 1.32562e-48 1.33932e-48 1.35369e-48 1.36852e-48 1.38361e-48 1.39874e-48 1.41368e-48 1.42816e-48 1.44181e-48 1.45422e-48 1.46488e-48 1.47328e-48 1.4789e-48 1.48134e-48 1.48032e-48 1.4758e-48 1.46792e-48 1.45703e-48 1.44364e-48 1.42829e-48 1.41151e-48 1.39367e-48 1.37493e-48 1.35523e-48 1.33423e-48 1.3114e-48 1.28607e-48 1.25753e-48 1.22512e-48 1.18831e-48 1.14678e-48 1.10039e-48 1.04925e-48 9.93658e-49 9.34068e-49 8.71077e-49 8.05384e-49 7.37776e-49 6.69109e-49 6.00301e-49 5.32314e-49 4.66132e-49 4.0272e-49 3.42979e-49 2.87699e-49 2.37505e-49 1.92822e-49 1.53855e-49 1.20584e-49 9.27855e-50 7.0065e-50 5.19045e-50 3.77113e-50 2.68665e-50 1.87651e-50 1.28483e-50 8.62315e-51 5.67283e-51 3.65806e-51 2.31224e-51 1.43276e-51 8.70373e-52 5.18413e-52 3.02786e-52 1.73437e-52 9.74437e-53 5.37083e-53 2.90452e-53 1.54143e-53 8.02915e-54 4.10568e-54 2.06135e-54 1.01637e-54 4.92223e-55 2.3419e-55 1.09484e-55 5.03033e-56 2.27187e-56 1.00878e-56 4.40468e-57 1.89157e-57 7.991e-58 3.32146e-58 1.35859e-58 5.46959e-59 2.16775e-59 8.45913e-60 3.25074e-60 1.23042e-60 4.58789e-61 1.68549e-61 6.10118e-62 2.17411e-62 7.55728e-63 2.34985e-63 0 
0 1.58041e-88 7.9119e-88 3.77207e-87 1.77878e-86 8.30912e-86 3.84478e-85 1.76213e-84 7.99878e-84 3.59575e-83 1.60067e-82 7.05541e-82 3.07904e-81 1.33028e-80 5.68941e-80 2.40851e-79 1.00913e-78 4.18433e-78 1.71689e-77 6.97032e-77 2.79974e-76 1.11248e-75 4.37255e-75 1.69981e-74 6.53498e-74 2.48439e-73 9.33857e-73 3.47039e-72 1.27487e-71 4.62909e-71 1.66117e-70 5.89079e-70 2.06405e-69 7.14501e-69 2.44325e-68 8.25199e-68 2.75247e-67 9.06569e-67 2.94807e-66 9.46399e-66 2.99882e-65 9.37793e-65 2.89389e-64 8.81073e-64 2.64627e-63 7.8394e-63 2.29031e-62 6.59778e-62 1.87383e-61 5.24587e-61 1.44741e-60 3.93534e-60 1.05418e-59 2.78175e-59 7.22962e-59 1.85025e-58 4.66218e-58 1.15641e-57 2.82306e-57 6.78162e-57 1.60278e-56 3.72611e-56 8.51924e-56 1.91525e-55 4.23297e-55 9.19555e-55 1.96308e-54 4.1176e-54 8.48416e-54 1.71692e-53 3.41181e-53 6.65626e-53 1.27469e-52 2.39566e-52 4.41791e-52 7.99285e-52 1.41842e-51 2.46864e-51 4.21297e-51 7.04917e-51 1.15624e-50 1.85892e-50 2.92911e-50 4.52307e-50 6.84421e-50 1.01482e-49 1.4744e-49 2.09901e-49 2.92821e-49 4.00327e-49 5.36423e-49 7.04621e-49 9.07523e-49 1.14641e-48 1.42086e-48 1.72854e-48 2.06512e-48 2.42437e-48 2.79857e-48 3.17899e-48 3.55655e-48 3.92252e-48 4.26916e-48 4.5902e-48 4.8812e-48 5.13957e-48 5.36446e-48 5.55647e-48 5.71713e-48 5.8485e-48 5.95266e-48 6.03133e-48 6.08569e-48 6.11631e-48 6.12326e-48 6.10636e-48 6.06559e-48 6.00152e-48 5.91568e-48 5.81094e-48 5.69162e-48 5.56345e-48 5.43331e-48 5.30876e-48 5.19737e-48 5.10605e-48 5.04038e-48 5.00405e-48 4.99853e-48 5.02295e-48 5.07432e-48 5.14789e-48 5.23772e-48 5.33729e-48 5.44013e-48 5.54034e-48 5.63299e-48 5.71435e-48 5.78199e-48 5.83473e-48 5.87249e-48 5.89613e-48 5.90719e-48 5.90769e-48 5.89997e-48 5.88642e-48 5.86947e-48 5.85135e-48 5.83414e-48 5.81964e-48 5.80939e-48 5.80465e-48 5.80645e-48 5.81552e-48 5.83234e-48 5.85713e-48 5.88981e-48 5.93006e-48 5.97725e-48 6.03058e-48 6.08907e-48 6.1517e-48 6.21743e-48 6.28527e-48 6.35429e-48 6.42352e-48 6.49191e-48 6.55816e-48 6.62069e-48 6.67751e-48 6.72637e-48 6.76485e-48 6.79063e-48 6.80183e-48 6.79723e-48 6.77655e-48 6.74049e-48 6.69068e-48 6.62938e-48 6.55916e-48 6.48237e-48 6.40076e-48 6.31511e-48 6.22507e-48 6.12912e-48 6.02483e-48 5.90912e-48 5.77873e-48 5.63065e-48 5.46244e-48 5.27256e-48 5.06043e-48 4.82646e-48 4.57199e-48 4.29908e-48 4.01042e-48 3.7092e-48 3.39897e-48 3.08367e-48 2.76748e-48 2.45484e-48 2.15029e-48 1.85829e-48 1.58303e-48 1.32818e-48 1.09667e-48 8.90494e-49 7.10625e-49 5.57005e-49 4.28621e-49 3.23672e-49 2.39777e-49 1.74204e-49 1.24099e-49 8.66702e-50 5.93355e-50 3.98175e-50 2.61901e-50 1.68853e-50 1.0671e-50 6.61071e-51 4.01494e-51 2.39079e-51 1.39601e-51 7.99418e-52 4.49018e-52 2.47414e-52 1.3376e-52 7.09648e-53 3.69531e-53 1.88898e-53 9.48102e-54 4.67317e-54 2.26246e-54 1.07608e-54 5.02903e-55 2.30986e-55 1.04287e-55 4.62912e-56 2.02058e-56 8.67449e-57 3.66339e-57 1.5222e-57 6.22437e-58 2.50511e-58 9.92541e-59 3.87199e-59 1.48752e-59 5.6287e-60 2.09818e-60 7.70611e-61 2.78871e-61 9.93472e-62 3.45247e-62 1.07328e-62 0 
0 7.08913e-88 3.54902e-87 1.69206e-86 7.97934e-86 3.72744e-85 1.7248e-84 7.90536e-84 3.58858e-83 1.61327e-82 7.1819e-82 3.16579e-81 1.38165e-80 5.96971e-80 2.55332e-79 1.08098e-78 4.52951e-78 1.8783e-77 7.70755e-77 3.12944e-76 1.25711e-75 4.99567e-75 1.96374e-74 7.6348e-74 2.93557e-73 1.11615e-72 4.19605e-72 1.55955e-71 5.72993e-71 2.08086e-70 7.46845e-70 2.64887e-69 9.28283e-69 3.21395e-68 1.09922e-67 3.71327e-67 1.23881e-66 4.08105e-66 1.3274e-65 4.26218e-65 1.35084e-64 4.22535e-64 1.30419e-63 3.97171e-63 1.19319e-62 3.53566e-62 1.03323e-61 2.97728e-61 8.4581e-61 2.36857e-60 6.53715e-60 1.77791e-59 4.76404e-59 1.25752e-58 3.26926e-58 8.36963e-58 2.10964e-57 5.2345e-57 1.27829e-56 3.07181e-56 7.26248e-56 1.68896e-55 3.86296e-55 8.68759e-55 1.92077e-54 4.17412e-54 8.9142e-54 1.87044e-53 3.85537e-53 7.80482e-53 1.5515e-52 3.02796e-52 5.80062e-52 1.09055e-51 2.01178e-51 3.64089e-51 6.46323e-51 1.12521e-50 1.92086e-50 3.21489e-50 5.27462e-50 8.48233e-50 1.33688e-49 2.06483e-49 3.12507e-49 4.63445e-49 6.73431e-49 9.58843e-49 1.33777e-48 1.82905e-48 2.45099e-48 3.21958e-48 4.14666e-48 5.23798e-48 6.49156e-48 7.89657e-48 9.43302e-48 1.10724e-47 1.27792e-47 1.45135e-47 1.62338e-47 1.79002e-47 1.94773e-47 2.09368e-47 2.22585e-47 2.34309e-47 2.44503e-47 2.53197e-47 2.60465e-47 2.66401e-47 2.71102e-47 2.74649e-47 2.77096e-47 2.7847e-47 2.78773e-47 2.77997e-47 2.76142e-47 2.7323e-47 2.69333e-47 2.64579e-47 2.59163e-47 2.53346e-47 2.4744e-47 2.41787e-47 2.36731e-47 2.32587e-47 2.29608e-47 2.27961e-47 2.27712e-47 2.28824e-47 2.31158e-47 2.345e-47 2.38579e-47 2.43099e-47 2.47767e-47 2.52314e-47 2.56517e-47 2.60206e-47 2.63272e-47 2.65662e-47 2.67372e-47 2.68441e-47 2.6894e-47 2.6896e-47 2.68607e-47 2.67991e-47 2.6722e-47 2.66398e-47 2.65616e-47 2.64958e-47 2.64492e-47 2.64276e-47 2.64356e-47 2.64766e-47 2.65527e-47 2.6665e-47 2.6813e-47 2.69952e-47 2.7209e-47 2.74506e-47 2.77157e-47 2.79995e-47 2.82973e-47 2.86048e-47 2.89176e-47 2.92315e-47 2.95416e-47 2.98421e-47 3.01258e-47 3.03837e-47 3.06055e-47 3.07803e-47 3.08975e-47 3.09485e-47 3.09278e-47 3.08342e-47 3.06707e-47 3.04448e-47 3.01668e-47 2.98484e-47 2.95003e-47 2.91304e-47 2.87424e-47 2.83347e-47 2.79004e-47 2.74284e-47 2.69047e-47 2.63146e-47 2.56443e-47 2.48827e-47 2.40227e-47 2.30615e-47 2.20009e-47 2.08468e-47 1.96085e-47 1.82979e-47 1.69293e-47 1.55188e-47 1.40841e-47 1.26444e-47 1.12197e-47 9.83089e-48 8.49838e-48 7.24148e-48 6.07711e-48 5.01883e-48 4.07595e-48 3.25308e-48 2.55008e-48 1.96243e-48 1.48196e-48 1.09783e-48 7.97574e-49 5.68136e-49 3.96745e-49 2.71583e-49 1.82221e-49 1.19836e-49 7.7246e-50 4.88066e-50 3.0229e-50 1.83548e-50 1.09269e-50 6.37859e-51 3.65163e-51 2.05044e-51 1.12947e-51 6.10435e-52 3.23755e-52 1.68532e-52 8.61221e-53 4.32111e-53 2.12914e-53 1.03044e-53 4.89934e-54 2.28891e-54 1.05095e-54 4.74324e-55 2.10473e-55 9.18387e-56 3.94136e-56 1.66395e-56 6.91173e-57 2.82531e-57 1.13673e-57 4.50237e-58 1.75586e-58 6.7435e-59 2.55093e-59 9.50614e-60 3.49036e-60 1.26274e-60 4.49724e-61 1.56245e-61 4.85621e-62 0 