# vtk DataFile Version 3.0
Gray-Scott Simulation Output
ASCII
DATASET STRUCTURED_POINTS
DIMENSIONS 256 256 1
SPACING 1.0 1.0 1.0
ORIGIN 0 0 0
POINT_DATA 65536
SCALARS u double
LOOKUP_TABLE default
0 0 0 0 0 0 0 0 0 0 0 0 0 0 0 0 0 0 0 0 0 0 0 0 0 0 0 0 0 0 0 0 0 0 0 0 0 0 0 0 0 0 0 0 0 0 0 0 0 0 0 0 0 0 0 0 0 0 0 0 0 0 0 0 0 0 0 0 0 0 0 0 0 0 0 0 0 0 0 0 0 0 0 0 0 0 0 0 0 0 0 0 0 0 0 0 0 0 0 0 0 0 0 0 0 0 0 0 0 0 0 0 0 0 0 0 0 0 0 0 0 0 0 0 0 0 0 0 0 0 0 0 0 0 0 0 0 0 0 0 0 0 0 0 0 0 0 0 0 0 0 0 0 0 0 0 0 0 0 0 0 0 0 0 0 0 0 0 0 0 0 0 0 0 0 0 0 0 0 0 0 0 0 0 0 0 0 0 0 0 0 0 0 0 0 0 0 0 0 0 0 0 0 0 0 0 0 0 0 0 0 0 0 0 0 0 0 0 0 0 0 0 0 0 0 0 0 0 0 0 0 0 0 0 0 0 0 0 0 0 0 0 0 0 0 0 0 0 0 0 0 0 0 0 0 0 
0 1.67778e-80 6.45708e-80 2.3019e-79 8.09615e-79 2.82216e-78 9.75266e-78 3.34108e-77 1.13461e-76 3.8192e-76 1.2742e-75 4.21325e-75 1.38063e-74 4.48324e-74 1.44255e-73 4.59898e-73 1.45264e-72 4.54553e-72 1.40901e-71 4.32626e-71 1.31568e-70 3.9627e-70 1.18197e-69 3.49107e-69 1.02098e-68 2.95628e-68 8.47446e-68 2.4048e-67 6.75479e-67 1.87791e-66 5.16689e-66 1.40682e-65 3.79026e-65 1.01037e-64 2.66459e-64 6.9516e-64 1.79392e-63 4.57872e-63 1.15576e-62 2.88493e-62 7.12035e-62 1.73751e-61 4.1915e-61 9.99504e-61 2.35575e-60 5.48734e-60 1.26309e-59 2.87281e-59 6.4555e-59 1.43304e-58 3.14232e-58 6.80543e-58 1.45556e-57 3.07413e-57 6.41049e-57 1.31973e-56 2.682e-56 5.37976e-56 1.065e-55 2.08053e-55 4.01037e-55 7.62665e-55 1.43079e-54 2.64767e-54 4.83224e-54 8.69732e-54 1.54358e-53 2.70104e-53 4.65962e-53 7.92397e-53 1.32821e-52 2.19422e-52 3.57229e-52 5.73095e-52 9.05914e-52 1.41089e-51 2.1648e-51 3.27214e-51 4.87206e-51 7.14564e-51 1.03229e-50 1.46887e-50 2.05864e-50 2.84181e-50 3.86398e-50 5.17504e-50 6.82738e-50 8.87339e-50 1.13622e-49 1.43358e-49 1.78252e-49 2.18465e-49 2.63969e-49 3.14527e-49 3.69677e-49 4.28735e-49 4.90819e-49 5.54884e-49 6.19778e-49 6.84299e-49 7.47271e-49 8.07598e-49 8.64328e-49 9.16686e-49 9.64105e-49 1.00623e-48 1.04289e-48 1.0741e-48 1.09999e-48 1.12079e-48 1.13678e-48 1.14827e-48 1.15555e-48 1.15891e-48 1.15863e-48 1.155e-48 1.14832e-48 1.13897e-48 1.12737e-48 1.11402e-48 1.0995e-48 1.08447e-48 1.06962e-48 1.05565e-48 1.04325e-48 1.033e-48 1.02538e-48 1.02072e-48 1.01916e-48 1.02068e-48 1.02507e-48 1.03197e-48 1.04088e-48 1.05125e-48 1.06249e-48 1.07399e-48 1.08522e-48 1.09571e-48 1.1051e-48 1.11314e-48 1.11969e-48 1.12471e-48 1.12827e-48 1.13051e-48 1.13164e-48 1.13189e-48 1.13154e-48 1.13086e-48 1.13012e-48 1.12957e-48 1.12943e-48 1.12991e-48 1.13115e-48 1.13328e-48 1.13639e-48 1.14052e-48 1.14567e-48 1.15183e-48 1.15894e-48 1.16691e-48 1.17564e-48 1.185e-48 1.19483e-48 1.20497e-48 1.21522e-48 1.22538e-48 1.23523e-48 1.24453e-48 1.25303e-48 1.26048e-48 1.26664e-48 1.27129e-48 1.27423e-48 1.27533e-48 1.27451e-48 1.27173e-48 1.26701e-48 1.26045e-48 1.25213e-48 1.24218e-48 1.23069e-48 1.21774e-48 1.20334e-48 1.18746e-48 1.16997e-48 1.15072e-48 1.12948e-48 1.10602e-48 1.08007e-48 1.05141e-48 1.01981e-48 9.85151e-49 9.47336e-49 9.06375e-49 8.62362e-49 8.15492e-49 7.6606e-49 7.14458e-49 6.61176e-49 6.06785e-49 5.51928e-49 4.97294e-49 4.43594e-49 3.91531e-49 3.41767e-49 2.94894e-49 2.51405e-49 2.11677e-49 1.75953e-49 1.44341e-49 1.16821e-49 9.32542e-50 7.34057e-50 5.6966e-50 4.35762e-50 3.28525e-50 2.44074e-50 1.78676e-50 1.28877e-50 9.15855e-51 6.41218e-51 4.42289e-51 3.00559e-51 2.01225e-51 1.32732e-51 8.6263e-52 5.524e-52 3.48566e-52 2.16744e-52 1.32822e-52 8.0221e-53 4.77569e-53 2.80254e-53 1.62135e-53 9.24798e-54 5.20126e-54 2.88472e-54 1.57789e-54 8.51275e-55 4.53036e-55 2.37853e-55 1.23209e-55 6.29777e-56 3.17675e-56 1.58154e-56 7.77184e-57 3.77018e-57 1.80569e-57 8.53901e-58 3.98745e-58 1.83865e-58 8.3673e-59 3.74524e-59 1.61763e-59 5.98987e-60 0 
0 6.44546e-80 2.48091e-79 8.8456e-79 3.11163e-78 1.08483e-77 3.74952e-77 1.28474e-76 4.36365e-76 1.46912e-75 4.90235e-75 1.62131e-74 5.31389e-74 1.7259e-73 5.55447e-73 1.7712e-72 5.59574e-72 1.75139e-71 5.43014e-71 1.66768e-70 5.07286e-70 1.52828e-69 4.55958e-69 1.34707e-68 3.94061e-68 1.14133e-67 3.27261e-67 9.28932e-67 2.61e-66 7.25822e-66 1.99763e-65 5.44074e-65 1.4663e-64 3.90992e-64 1.03148e-63 2.69188e-63 6.94894e-63 1.77422e-62 4.48002e-62 1.11866e-61 2.76197e-61 6.7422e-61 1.62705e-60 3.8813e-60 9.15136e-60 2.13247e-59 4.91046e-59 1.11728e-58 2.51162e-58 5.57771e-58 1.22354e-57 2.65093e-57 5.67214e-57 1.19844e-56 2.50013e-56 5.14913e-56 1.04685e-55 2.10071e-55 4.16037e-55 8.13077e-55 1.5679e-54 2.98294e-54 5.59836e-54 1.03638e-53 1.89224e-53 3.40707e-53 6.04907e-53 1.0589e-52 1.82739e-52 3.1087e-52 5.21258e-52 8.61415e-52 1.40287e-51 2.2513e-51 3.55976e-51 5.54559e-51 8.51109e-51 1.28678e-50 1.91638e-50 2.81124e-50 4.06196e-50 5.78075e-50 8.10287e-50 1.11866e-49 1.52115e-49 2.03738e-49 2.68795e-49 3.49343e-49 4.47305e-49 5.64328e-49 7.01615e-49 8.59774e-49 1.03868e-48 1.23736e-48 1.45397e-48 1.68579e-48 1.92931e-48 2.18042e-48 2.43454e-48 2.68696e-48 2.93304e-48 3.1685e-48 3.38961e-48 3.59338e-48 3.77762e-48 3.94099e-48 4.08288e-48 4.20341e-48 4.30314e-48 4.38304e-48 4.44424e-48 4.48796e-48 4.51538e-48 4.52764e-48 4.52586e-48 4.51115e-48 4.48471e-48 4.44794e-48 4.40247e-48 4.35027e-48 4.29358e-48 4.23492e-48 4.17701e-48 4.12257e-48 4.07421e-48 4.03426e-48 4.00457e-48 3.98641e-48 3.98036e-48 3.98628e-48 4.00337e-48 4.0302e-48 4.0649e-48 4.10527e-48 4.14898e-48 4.19373e-48 4.2374e-48 4.27819e-48 4.31469e-48 4.34591e-48 4.37131e-48 4.39077e-48 4.40455e-48 4.41319e-48 4.4175e-48 4.41842e-48 4.417e-48 4.4143e-48 4.41136e-48 4.40917e-48 4.4086e-48 4.41041e-48 4.41522e-48 4.42349e-48 4.43556e-48 4.45159e-48 4.47163e-48 4.49558e-48 4.52322e-48 4.55423e-48 4.58818e-48 4.62458e-48 4.66282e-48 4.70225e-48 4.74215e-48 4.78171e-48 4.82005e-48 4.85626e-48 4.88936e-48 4.91839e-48 4.94239e-48 4.96051e-48 4.97202e-48 4.97635e-48 4.97318e-48 4.9624e-48 4.94412e-48 4.91864e-48 4.88636e-48 4.84775e-48 4.80321e-48 4.75301e-48 4.69723e-48 4.63571e-48 4.56803e-48 4.49354e-48 4.41139e-48 4.32062e-48 4.22025e-48 4.10932e-48 3.98703e-48 3.85277e-48 3.7062e-48 3.54731e-48 3.37644e-48 3.19431e-48 3.00203e-48 2.8011e-48 2.59341e-48 2.38118e-48 2.1669e-48 1.95328e-48 1.74312e-48 1.53917e-48 1.34406e-48 1.16014e-48 9.89377e-49 8.33278e-49 6.92828e-49 5.68484e-49 4.60185e-49 3.67407e-49 2.89243e-49 2.24484e-49 1.71729e-49 1.2947e-49 9.61876e-50 7.04122e-50 5.07841e-50 3.60858e-50 2.52617e-50 1.74221e-50 1.18372e-50 7.92353e-51 5.22541e-51 3.39524e-51 2.17366e-51 1.37123e-51 8.52413e-52 5.22211e-52 3.15306e-52 1.87647e-52 1.10082e-52 6.3664e-53 3.63008e-53 2.04091e-53 1.13152e-53 6.18696e-54 3.33665e-54 1.77505e-54 9.31587e-55 4.82386e-55 2.46474e-55 1.2428e-55 6.1849e-56 3.03816e-56 1.47327e-56 7.05336e-57 3.33423e-57 1.55639e-57 7.17397e-58 3.2635e-58 1.46023e-58 6.30487e-59 2.33402e-59 0 
0 2.293e-79 8.82726e-79 3.14789e-78 1.10754e-77 3.86204e-77 1.33511e-76 4.57554e-76 1.55442e-75 5.2344e-75 1.74707e-74 5.77922e-74 1.89459e-73 6.1549e-73 1.98132e-72 6.31956e-72 1.99704e-71 6.2521e-71 1.93897e-70 5.9565e-70 1.8124e-69 5.46169e-69 1.62997e-68 4.81697e-68 1.40955e-67 4.08379e-67 1.17135e-66 3.32598e-66 9.34806e-66 2.60051e-65 7.15969e-65 1.9507e-64 5.25911e-64 1.40288e-63 3.70231e-63 9.66575e-63 2.49613e-62 6.37568e-62 1.61055e-61 4.02318e-61 9.93734e-61 2.4268e-60 5.85895e-60 1.39825e-59 3.29823e-59 7.689e-59 1.77135e-58 4.03218e-58 9.06841e-58 2.0148e-57 4.42179e-57 9.58474e-57 2.05179e-56 4.3372e-56 9.05233e-56 1.86526e-55 3.794e-55 7.61705e-55 1.50924e-54 2.95098e-54 5.69324e-54 1.08365e-53 2.03474e-53 3.76852e-53 6.88376e-53 1.24002e-52 2.20256e-52 3.8573e-52 6.65958e-52 1.13338e-51 1.90119e-51 3.14307e-51 5.12064e-51 8.22045e-51 1.30027e-50 2.02629e-50 3.11079e-50 4.70451e-50 7.00817e-50 1.02831e-49 1.48611e-49 2.11534e-49 2.96552e-49 4.09463e-49 5.56836e-49 7.45851e-49 9.84036e-49 1.2789e-48 1.63744e-48 2.06564e-48 2.56784e-48 3.14616e-48 3.80004e-48 4.52581e-48 5.31659e-48 6.16229e-48 7.04998e-48 7.96443e-48 8.88891e-48 9.80611e-48 1.06991e-47 1.15523e-47 1.23522e-47 1.30881e-47 1.37521e-47 1.43396e-47 1.48486e-47 1.52798e-47 1.56356e-47 1.59195e-47 1.6136e-47 1.62896e-47 1.63847e-47 1.64255e-47 1.64161e-47 1.63605e-47 1.62629e-47 1.61284e-47 1.59629e-47 1.57733e-47 1.55678e-47 1.53553e-47 1.51456e-47 1.49486e-47 1.47736e-47 1.46291e-47 1.45217e-47 1.4456e-47 1.44341e-47 1.44555e-47 1.45172e-47 1.46142e-47 1.47395e-47 1.48854e-47 1.50432e-47 1.52047e-47 1.53623e-47 1.55094e-47 1.5641e-47 1.57535e-47 1.58449e-47 1.59149e-47 1.59643e-47 1.59952e-47 1.60105e-47 1.60135e-47 1.60081e-47 1.59981e-47 1.59873e-47 1.59792e-47 1.5977e-47 1.59833e-47 1.60006e-47 1.60303e-47 1.60738e-47 1.61316e-47 1.62039e-47 1.62903e-47 1.639e-47 1.65019e-47 1.66245e-47 1.67558e-47 1.68939e-47 1.70363e-47 1.71804e-47 1.73232e-47 1.74618e-47 1.75926e-47 1.77123e-47 1.78173e-47 1.79041e-47 1.79697e-47 1.80114e-47 1.80273e-47 1.8016e-47 1.79773e-47 1.79115e-47 1.78198e-47 1.77036e-47 1.75647e-47 1.74044e-47 1.7224e-47 1.70236e-47 1.68028e-47 1.65599e-47 1.62927e-47 1.59981e-47 1.56727e-47 1.53128e-47 1.49149e-47 1.44761e-47 1.3994e-47 1.34672e-47 1.28957e-47 1.22804e-47 1.16239e-47 1.09299e-47 1.02039e-47 9.4525e-48 8.68371e-48 7.90656e-48 7.13087e-48 6.36684e-48 5.62462e-48 4.91386e-48 4.24324e-48 3.62006e-48 3.04996e-48 2.53666e-48 2.08195e-48 1.6857e-48 1.3461e-48 1.05987e-48 8.22657e-49 6.29365e-49 4.74505e-49 3.5252e-49 2.58043e-49 1.86096e-49 1.3222e-49 9.25466e-50 6.38151e-50 4.33498e-50 2.90108e-50 1.91273e-50 1.24247e-50 7.95212e-51 5.01494e-51 3.11649e-51 1.90859e-51 1.15198e-51 6.85321e-52 4.01885e-52 2.32332e-52 1.32421e-52 7.44192e-53 4.12422e-53 2.25409e-53 1.21512e-53 6.46143e-54 3.38961e-54 1.7544e-54 8.9601e-55 4.51595e-55 2.24639e-55 1.10298e-55 5.34622e-56 2.55839e-56 1.20885e-56 5.64033e-57 2.59869e-57 1.18165e-57 5.28499e-58 2.28103e-58 8.44173e-59 0 
0 8.04758e-79 3.09853e-78 1.10517e-77 3.88915e-77 1.35643e-76 4.69015e-76 1.6077e-75 5.46292e-75 1.84001e-74 6.14275e-74 2.03247e-73 6.66463e-73 2.16565e-72 6.9732e-72 2.22473e-71 7.03225e-71 2.20217e-70 6.83153e-70 2.09924e-69 6.3893e-69 1.92601e-68 5.74966e-68 1.69971e-67 4.97531e-67 1.44194e-66 4.13729e-66 1.17516e-65 3.30408e-65 9.19482e-65 2.53243e-64 6.90233e-64 1.86158e-63 4.9677e-63 1.31153e-62 3.42543e-62 8.8496e-62 2.26132e-61 5.7147e-61 1.42815e-60 3.52909e-60 8.62221e-60 2.08256e-59 4.9723e-59 1.17342e-58 2.73681e-58 6.30787e-58 1.43656e-57 3.23239e-57 7.18514e-57 1.57766e-56 3.42143e-56 7.32783e-56 1.54977e-55 3.2362e-55 6.67162e-55 1.35771e-54 2.72719e-54 5.40636e-54 1.05762e-53 2.04145e-53 3.88763e-53 7.3033e-53 1.35329e-52 2.47319e-52 4.45723e-52 7.92082e-52 1.38779e-51 2.39709e-51 4.08134e-51 6.84917e-51 1.13278e-50 1.84624e-50 2.96501e-50 4.6916e-50 7.31373e-50 1.12318e-49 1.69911e-49 2.53181e-49 3.71585e-49 5.37136e-49 7.64709e-49 1.07223e-48 1.48067e-48 2.01378e-48 2.69751e-48 3.55904e-48 4.62542e-48 5.92188e-48 7.46979e-48 9.2846e-48 1.13737e-47 1.37345e-47 1.63535e-47 1.92051e-47 2.22524e-47 2.54483e-47 2.87373e-47 3.20586e-47 3.53496e-47 3.85493e-47 4.16016e-47 4.44583e-47 4.70811e-47 4.94427e-47 5.15271e-47 5.33286e-47 5.485e-47 5.61009e-47 5.70954e-47 5.78497e-47 5.83807e-47 5.87046e-47 5.88368e-47 5.87916e-47 5.85835e-47 5.82278e-47 5.7742e-47 5.71468e-47 5.64668e-47 5.57307e-47 5.49707e-47 5.42211e-47 5.3517e-47 5.28921e-47 5.23759e-47 5.19924e-47 5.17577e-47 5.16794e-47 5.17557e-47 5.19759e-47 5.23217e-47 5.27688e-47 5.32886e-47 5.38512e-47 5.44269e-47 5.49883e-47 5.55122e-47 5.59804e-47 5.63804e-47 5.67052e-47 5.69535e-47 5.71284e-47 5.72374e-47 5.72905e-47 5.73002e-47 5.72799e-47 5.72434e-47 5.7204e-47 5.71745e-47 5.7166e-47 5.71882e-47 5.72491e-47 5.73548e-47 5.75093e-47 5.7715e-47 5.79723e-47 5.828e-47 5.86353e-47 5.90339e-47 5.94706e-47 5.99387e-47 6.04308e-47 6.09384e-47 6.14521e-47 6.19617e-47 6.24558e-47 6.29226e-47 6.33497e-47 6.37244e-47 6.40346e-47 6.42691e-47 6.44185e-47 6.44756e-47 6.44362e-47 6.42989e-47 6.40654e-47 6.37395e-47 6.33267e-47 6.28333e-47 6.22646e-47 6.16244e-47 6.09141e-47 6.01316e-47 5.92717e-47 5.83262e-47 5.72841e-47 5.6133e-47 5.48597e-47 5.34518e-47 5.1898e-47 5.01899e-47 4.83222e-47 4.62936e-47 4.41073e-47 4.17716e-47 3.92997e-47 3.67102e-47 3.40266e-47 3.12772e-47 2.84943e-47 2.57132e-47 2.29705e-47 2.0303e-47 1.77459e-47 1.53308e-47 1.30846e-47 1.1028e-47 9.17494e-48 7.53237e-48 6.1002e-48 4.87216e-48 3.83673e-48 2.97834e-48 2.27869e-48 1.71804e-48 1.27635e-48 9.34237e-49 6.73696e-49 4.78599e-49 3.34942e-49 2.30916e-49 1.56829e-49 1.04929e-49 6.91636e-50 4.49146e-50 2.87376e-50 1.81173e-50 1.12549e-50 6.89024e-51 4.15721e-51 2.47219e-51 1.44916e-51 8.37419e-52 4.77096e-52 2.68008e-52 1.48461e-52 8.1105e-53 4.37016e-53 2.32279e-53 1.21795e-53 6.30096e-54 3.21653e-54 1.62039e-54 8.05662e-55 3.95396e-55 1.91561e-55 9.16269e-56 4.3274e-56 2.01816e-56 9.29408e-57 4.2242e-57 1.88845e-57 8.14736e-58 3.01428e-58 0 
0 2.79915e-78 1.07792e-77 3.84542e-77 1.35349e-76 4.72159e-76 1.63293e-75 5.59862e-75 1.90282e-74 6.41052e-74 2.14062e-73 7.08444e-73 2.32362e-72 7.55245e-72 2.43246e-71 7.7626e-71 2.45439e-70 7.68818e-70 2.3857e-69 7.33311e-69 2.2326e-68 6.73208e-68 2.01035e-67 5.9449e-67 1.74074e-66 5.04669e-66 1.44853e-65 4.11586e-65 1.15764e-64 3.22273e-64 8.87935e-64 2.42106e-63 6.53222e-63 1.74385e-62 4.60584e-62 1.20344e-61 3.11038e-61 7.9513e-61 2.01028e-60 5.02608e-60 1.24255e-59 3.03715e-59 7.33914e-59 1.75311e-58 4.13914e-58 9.65847e-58 2.22719e-57 5.07472e-57 1.14242e-56 2.54071e-56 5.58149e-56 1.21106e-55 2.59511e-55 5.49125e-55 1.14726e-54 2.36638e-54 4.81822e-54 9.68322e-54 1.9206e-53 3.75911e-53 7.25972e-53 1.38321e-52 2.59983e-52 4.8199e-52 8.81292e-52 1.58907e-51 2.82526e-51 4.95246e-51 8.55822e-51 1.45781e-50 2.44753e-50 4.0497e-50 6.60306e-50 1.06085e-49 1.67924e-49 2.6187e-49 4.02292e-49 6.08766e-49 9.07372e-49 1.33206e-48 1.92598e-48 2.74252e-48 3.84606e-48 5.31184e-48 7.22508e-48 9.67881e-48 1.27704e-47 1.65965e-47 2.12471e-47 2.67983e-47 3.33044e-47 4.07906e-47 4.92464e-47 5.86211e-47 6.88216e-47 7.97136e-47 9.11259e-47 1.02858e-46 1.14693e-46 1.26403e-46 1.37772e-46 1.48599e-46 1.58713e-46 1.67979e-46 1.76304e-46 1.83633e-46 1.89949e-46 1.95266e-46 1.99622e-46 2.03069e-46 2.05669e-46 2.07483e-46 2.08571e-46 2.08988e-46 2.08785e-46 2.08013e-46 2.06725e-46 2.04984e-46 2.02861e-46 2.00442e-46 1.97828e-46 1.95132e-46 1.92474e-46 1.8998e-46 1.87766e-46 1.85938e-46 1.84579e-46 1.83749e-46 1.83471e-46 1.8374e-46 1.84519e-46 1.85742e-46 1.87323e-46 1.89161e-46 1.91149e-46 1.93183e-46 1.95166e-46 1.97015e-46 1.98667e-46 2.00078e-46 2.01222e-46 2.02095e-46 2.02708e-46 2.03089e-46 2.03273e-46 2.03303e-46 2.03227e-46 2.03095e-46 2.02953e-46 2.02846e-46 2.02813e-46 2.0289e-46 2.03104e-46 2.03475e-46 2.0402e-46 2.04746e-46 2.05654e-46 2.06741e-46 2.07996e-46 2.09404e-46 2.10947e-46 2.12601e-46 2.1434e-46 2.16134e-46 2.1795e-46 2.19751e-46 2.21499e-46 2.2315e-46 2.24662e-46 2.25988e-46 2.27087e-46 2.27918e-46 2.28448e-46 2.28653e-46 2.28516e-46 2.28034e-46 2.27212e-46 2.26064e-46 2.2461e-46 2.22873e-46 2.20872e-46 2.18621e-46 2.16124e-46 2.13377e-46 2.1036e-46 2.07044e-46 2.0339e-46 1.99355e-46 1.94892e-46 1.89955e-46 1.84504e-46 1.78506e-46 1.71943e-46 1.64807e-46 1.57108e-46 1.48871e-46 1.40143e-46 1.30987e-46 1.21485e-46 1.11736e-46 1.01855e-46 9.19669e-47 8.22031e-47 7.26958e-47 6.35715e-47 5.49452e-47 4.69145e-47 3.95555e-47 3.292e-47 2.70342e-47 2.18993e-47 1.74942e-47 1.37784e-47 1.06969e-47 8.18461e-48 6.17102e-48 4.58445e-48 3.35544e-48 2.41945e-48 1.71858e-48 1.20254e-48 8.28898e-49 5.62832e-49 3.7648e-49 2.48087e-49 1.6106e-49 1.03018e-49 6.49243e-50 4.03183e-50 2.46735e-50 1.48809e-50 8.84573e-51 5.18306e-51 2.99382e-51 1.7049e-51 9.57293e-52 5.30044e-52 2.89431e-52 1.5588e-52 8.28127e-53 4.3402e-53 2.24428e-53 1.14511e-53 5.76594e-54 2.86544e-54 1.40559e-54 6.80649e-55 3.25409e-55 1.53612e-55 7.16053e-56 3.29601e-56 1.49734e-56 6.69091e-57 2.88545e-57 1.06719e-57 0 
0 9.65186e-78 3.71745e-77 1.32644e-76 4.66969e-76 1.62935e-75 5.63622e-75 1.93285e-74 6.57075e-74 2.21418e-73 7.39542e-73 2.44815e-72 8.03171e-72 2.61123e-71 8.4124e-71 2.68535e-70 8.49299e-70 2.66113e-69 8.26013e-69 2.53976e-68 7.7348e-68 2.33306e-67 6.96932e-67 2.06162e-66 6.03873e-66 1.75134e-65 5.02857e-65 1.42934e-64 4.02169e-64 1.12002e-63 3.0871e-63 8.42066e-63 2.27287e-62 6.07016e-62 1.60392e-61 4.19258e-61 1.08407e-60 2.77252e-60 7.01274e-60 1.75411e-59 4.33852e-59 1.06096e-58 2.56497e-58 6.12992e-58 1.448e-57 3.38051e-57 7.79916e-57 1.77796e-56 4.00459e-56 8.91068e-56 1.95854e-55 4.25184e-55 9.11581e-55 1.92993e-54 4.03427e-54 8.32566e-54 1.69611e-53 3.41052e-53 6.76815e-53 1.32542e-52 2.56105e-52 4.88224e-52 9.18131e-52 1.70304e-51 3.11554e-51 5.62054e-51 9.998e-51 1.75344e-50 3.03154e-50 5.16637e-50 8.67786e-50 1.43649e-49 2.3432e-49 3.76615e-49 5.96385e-49 9.30383e-49 1.42978e-48 2.1643e-48 3.22688e-48 4.73849e-48 6.85285e-48 9.76028e-48 1.369e-47 1.89102e-47 2.5724e-47 3.44626e-47 4.54716e-47 5.90945e-47 7.56498e-47 9.54051e-47 1.1855e-46 1.45171e-46 1.75223e-46 2.08521e-46 2.44725e-46 2.83351e-46 3.23784e-46 3.65306e-46 4.07135e-46 4.4847e-46 4.88535e-46 5.26623e-46 5.62133e-46 5.94597e-46 6.23689e-46 6.49231e-46 6.71174e-46 6.89583e-46 7.04603e-46 7.16433e-46 7.25296e-46 7.3142e-46 7.35019e-46 7.3629e-46 7.35416e-46 7.32573e-46 7.27949e-46 7.21754e-46 7.14239e-46 7.05703e-46 6.96494e-46 6.87007e-46 6.77663e-46 6.68895e-46 6.61117e-46 6.54694e-46 6.49924e-46 6.47005e-46 6.46029e-46 6.46973e-46 6.49704e-46 6.53994e-46 6.59537e-46 6.65981e-46 6.72951e-46 6.80077e-46 6.87023e-46 6.93498e-46 6.99278e-46 7.04208e-46 7.08203e-46 7.11248e-46 7.13383e-46 7.14701e-46 7.15329e-46 7.1542e-46 7.15142e-46 7.14665e-46 7.14156e-46 7.13772e-46 7.1365e-46 7.13911e-46 7.14654e-46 7.15952e-46 7.17857e-46 7.20396e-46 7.23576e-46 7.27381e-46 7.31776e-46 7.3671e-46 7.42115e-46 7.47912e-46 7.54008e-46 7.60297e-46 7.66664e-46 7.72982e-46 7.79112e-46 7.84906e-46 7.9021e-46 7.94867e-46 7.98727e-46 8.01649e-46 8.03518e-46 8.04244e-46 8.03774e-46 8.02094e-46 7.99223e-46 7.95214e-46 7.90138e-46 7.84073e-46 7.77091e-46 7.69242e-46 7.60546e-46 7.50982e-46 7.40486e-46 7.28959e-46 7.16264e-46 7.02245e-46 6.86737e-46 6.69577e-46 6.5062e-46 6.29749e-46 6.06887e-46 5.82003e-46 5.55121e-46 5.26326e-46 4.95769e-46 4.63666e-46 4.30301e-46 3.9602e-46 3.61224e-46 3.26353e-46 2.91875e-46 2.5826e-46 2.25962e-46 1.95393e-46 1.66907e-46 1.40782e-46 1.17206e-46 9.62788e-47 7.80112e-47 6.23316e-47 4.91e-47 3.81231e-47 2.91714e-47 2.19951e-47 1.63398e-47 1.19587e-47 8.62206e-48 6.12361e-48 4.28415e-48 2.95244e-48 2.00428e-48 1.34033e-48 8.82981e-49 5.7306e-49 3.66422e-49 2.30847e-49 1.43304e-49 8.76635e-50 5.28495e-50 3.14025e-50 1.8392e-50 1.06188e-50 6.04434e-51 3.3923e-51 1.8774e-51 1.02466e-51 5.51589e-52 2.92892e-52 1.53428e-52 7.92971e-53 4.044e-53 2.03524e-53 1.01092e-53 4.95642e-54 2.39891e-54 1.14631e-54 5.40856e-55 2.51993e-55 1.15936e-55 5.26429e-56 2.35125e-56 1.01354e-56 3.74735e-57 0 
0 3.29918e-77 1.27091e-76 4.53571e-76 1.59712e-75 5.57387e-75 1.92854e-74 6.61513e-74 2.24936e-73 7.58162e-73 2.53291e-72 8.387e-72 2.75227e-71 8.95046e-71 2.8843e-70 9.20968e-70 2.9136e-69 9.13197e-69 2.83543e-68 8.72085e-68 2.65678e-67 8.01631e-67 2.39543e-66 7.08843e-66 2.07702e-65 6.02587e-65 1.73083e-64 4.92162e-64 1.38531e-63 3.85951e-63 1.06421e-62 2.90403e-62 7.8417e-62 2.09516e-61 5.53842e-61 1.44836e-60 3.74668e-60 9.58647e-60 2.42589e-59 6.07077e-59 1.50222e-58 3.67536e-58 8.88993e-58 2.12562e-57 5.02364e-57 1.17342e-56 2.70858e-56 6.17793e-56 1.39222e-55 3.0995e-55 6.81627e-55 1.48056e-54 3.176e-54 6.72767e-54 1.40711e-53 2.90551e-53 5.92241e-53 1.19153e-52 2.3659e-52 4.63576e-52 8.96247e-52 1.70949e-51 3.21655e-51 5.96962e-51 1.09267e-50 1.97225e-50 3.51014e-50 6.15921e-50 1.06541e-49 1.81657e-49 3.05271e-49 5.05563e-49 8.25044e-49 1.32663e-48 2.10163e-48 3.27989e-48 5.04225e-48 7.6352e-48 1.13873e-47 1.67263e-47 2.41958e-47 3.44688e-47 4.83558e-47 6.68042e-47 9.08857e-47 1.21769e-46 1.60672e-46 2.08806e-46 2.67287e-46 3.37052e-46 4.18758e-46 5.12689e-46 6.18671e-46 7.36022e-46 8.6352e-46 9.99428e-46 1.14155e-45 1.28733e-45 1.434e-45 1.57872e-45 1.71876e-45 1.85165e-45 1.97528e-45 2.08803e-45 2.18881e-45 2.27703e-45 2.35257e-45 2.4157e-45 2.46698e-45 2.50715e-45 2.53704e-45 2.55745e-45 2.56916e-45 2.57288e-45 2.56924e-45 2.55885e-45 2.54236e-45 2.52049e-45 2.4941e-45 2.46421e-45 2.43203e-45 2.39892e-45 2.36633e-45 2.33577e-45 2.30866e-45 2.28628e-45 2.26966e-45 2.25949e-45 2.25609e-45 2.25937e-45 2.26886e-45 2.28379e-45 2.30306e-45 2.32547e-45 2.3497e-45 2.37446e-45 2.39859e-45 2.42107e-45 2.44112e-45 2.45821e-45 2.47205e-45 2.48258e-45 2.48994e-45 2.49446e-45 2.49659e-45 2.49685e-45 2.49584e-45 2.49413e-45 2.49233e-45 2.49096e-45 2.4905e-45 2.49139e-45 2.49394e-45 2.49844e-45 2.50504e-45 2.51386e-45 2.5249e-45 2.53811e-45 2.55338e-45 2.57052e-45 2.58931e-45 2.60945e-45 2.63064e-45 2.65251e-45 2.67465e-45 2.69662e-45 2.71795e-45 2.73811e-45 2.75657e-45 2.77279e-45 2.78624e-45 2.79643e-45 2.80295e-45 2.80551e-45 2.80391e-45 2.79811e-45 2.78817e-45 2.77429e-45 2.75671e-45 2.73572e-45 2.71156e-45 2.68443e-45 2.6544e-45 2.62139e-45 2.58521e-45 2.54549e-45 2.50176e-45 2.45349e-45 2.40009e-45 2.34098e-45 2.27564e-45 2.20366e-45 2.12473e-45 2.03871e-45 1.94567e-45 1.84587e-45 1.73981e-45 1.62821e-45 1.51204e-45 1.39249e-45 1.27096e-45 1.14899e-45 1.02822e-45 9.10323e-46 7.96905e-46 6.8944e-46 5.89195e-46 4.9717e-46 4.1406e-46 3.40235e-46 2.75751e-46 2.20374e-46 1.73621e-46 1.34821e-46 1.03171e-46 7.7792e-47 5.77893e-47 4.2292e-47 3.04888e-47 2.16509e-47 1.51446e-47 1.04348e-47 7.08209e-48 4.73475e-48 3.11825e-48 2.02312e-48 1.29316e-48 8.144e-49 5.05365e-49 3.09023e-49 1.86222e-49 1.10602e-49 6.47491e-50 3.73663e-50 2.12593e-50 1.19258e-50 6.59682e-51 3.59869e-51 1.93625e-51 1.02762e-51 5.38032e-52 2.7793e-52 1.41666e-52 7.12597e-53 3.53771e-53 1.73359e-53 8.38625e-54 4.00528e-54 1.88881e-54 8.79574e-55 4.04466e-55 1.83564e-55 8.19472e-56 3.53087e-56 1.30502e-56 0 
0 1.11785e-76 4.30697e-76 1.53741e-75 5.41474e-75 1.89014e-74 6.54133e-74 2.24429e-73 7.63315e-73 2.57345e-72 8.59974e-72 2.8483e-71 9.34947e-71 3.04132e-70 9.80346e-70 3.1312e-69 9.90891e-69 3.10666e-68 9.64902e-68 2.96868e-67 9.04695e-67 2.73066e-66 8.16257e-66 2.41627e-65 7.0826e-65 2.05557e-64 5.90649e-64 1.68016e-63 4.73106e-63 1.31862e-62 3.63742e-62 9.92995e-62 2.68251e-61 7.17029e-61 1.89626e-60 4.96114e-60 1.28396e-59 3.28674e-59 8.32118e-59 2.08337e-58 5.15786e-58 1.26256e-57 3.0554e-57 7.30933e-57 1.72837e-56 4.03922e-56 9.32864e-56 2.12889e-55 4.80014e-55 1.06924e-54 2.35273e-54 5.1132e-54 1.09747e-53 2.32607e-53 4.8678e-53 1.00572e-52 2.05116e-52 4.12912e-52 8.20348e-52 1.60832e-51 3.11119e-51 5.93764e-51 1.11785e-50 2.07579e-50 3.80159e-50 6.86562e-50 1.22258e-49 2.14638e-49 3.71471e-49 6.33696e-49 1.06544e-48 1.76534e-48 2.88225e-48 4.63658e-48 7.34832e-48 1.14727e-47 1.76438e-47 2.67265e-47 3.98733e-47 5.85854e-47 8.47703e-47 1.20789e-46 1.69486e-46 2.34184e-46 3.1864e-46 4.26945e-46 5.63367e-46 7.32127e-46 9.37122e-46 1.1816e-45 1.46781e-45 1.79668e-45 2.16754e-45 2.57789e-45 3.02338e-45 3.49782e-45 3.99341e-45 4.50117e-45 5.01131e-45 5.51389e-45 5.99937e-45 6.45911e-45 6.88589e-45 7.27414e-45 7.62018e-45 7.92213e-45 8.17973e-45 8.39414e-45 8.56745e-45 8.7024e-45 8.80197e-45 8.8691e-45 8.90655e-45 8.91678e-45 8.90201e-45 8.86435e-45 8.80598e-45 8.72936e-45 8.6374e-45 8.5336e-45 8.42205e-45 8.3074e-45 8.19467e-45 8.08899e-45 7.9953e-45 7.91797e-45 7.86054e-45 7.8254e-45 7.81362e-45 7.82492e-45 7.85768e-45 7.90915e-45 7.97564e-45 8.0529e-45 8.13642e-45 8.22176e-45 8.30485e-45 8.38225e-45 8.45124e-45 8.50999e-45 8.5575e-45 8.59358e-45 8.61875e-45 8.63413e-45 8.64125e-45 8.64197e-45 8.63829e-45 8.63227e-45 8.6259e-45 8.62105e-45 8.61939e-45 8.62234e-45 8.63108e-45 8.64651e-45 8.66922e-45 8.69955e-45 8.73756e-45 8.78308e-45 8.83567e-45 8.89474e-45 8.95947e-45 9.02891e-45 9.10195e-45 9.17734e-45 9.25369e-45 9.32948e-45 9.40305e-45 9.47263e-45 9.53636e-45 9.59237e-45 9.63883e-45 9.67408e-45 9.6967e-45 9.70563e-45 9.70024e-45 9.68036e-45 9.64627e-45 9.59859e-45 9.53824e-45 9.46619e-45 9.38335e-45 9.29039e-45 9.18756e-45 9.07467e-45 8.951e-45 8.81536e-45 8.66612e-45 8.50141e-45 8.31918e-45 8.11742e-45 7.89428e-45 7.64822e-45 7.37814e-45 7.08347e-45 6.7643e-45 6.42143e-45 6.05645e-45 5.67179e-45 5.27072e-45 4.85731e-45 4.43637e-45 4.01325e-45 3.59369e-45 3.18353e-45 2.78844e-45 2.41366e-45 2.06368e-45 1.74209e-45 1.4514e-45 1.19301e-45 9.67157e-46 7.73094e-46 6.09182e-46 4.73101e-46 3.6206e-46 2.73004e-46 2.02802e-46 1.48407e-46 1.06977e-46 7.59563e-47 5.31212e-47 3.65932e-47 2.48296e-47 1.65953e-47 1.09261e-47 7.0865e-48 4.52804e-48 2.85056e-48 1.76817e-48 1.08076e-48 6.50996e-49 3.86471e-49 2.26144e-49 1.30444e-49 7.41791e-50 4.15912e-50 2.29948e-50 1.25376e-50 6.74228e-51 3.57644e-51 1.87153e-51 9.66258e-52 4.92255e-52 2.47478e-52 1.22795e-52 6.01415e-53 2.90779e-53 1.38802e-53 6.54217e-54 3.04493e-54 1.39946e-54 6.34804e-55 2.8325e-55 1.21988e-55 4.50715e-56 0 
0 3.75421e-76 1.44672e-75 5.16532e-75 1.81962e-74 6.35326e-74 2.19923e-73 7.54725e-73 2.56757e-72 8.65855e-72 2.89421e-71 9.58842e-71 3.14825e-70 1.02439e-69 3.30302e-69 1.05529e-68 3.34058e-68 1.04767e-67 3.25503e-67 1.00179e-66 3.05397e-66 9.22104e-66 2.75735e-65 8.16524e-65 2.39429e-64 6.95152e-64 1.99823e-63 5.68641e-63 1.60185e-62 4.46643e-62 1.23259e-61 3.36634e-61 9.09791e-61 2.43294e-60 6.43708e-60 1.6849e-59 4.36263e-59 1.1173e-58 2.8301e-58 7.08924e-58 1.75599e-57 4.30056e-57 1.04128e-56 2.49233e-56 5.89653e-56 1.37878e-55 3.18605e-55 7.2749e-55 1.64124e-54 3.65797e-54 8.05349e-54 1.75128e-53 3.76104e-53 7.97612e-53 1.67016e-52 3.45268e-52 7.04594e-52 1.41923e-51 2.82132e-51 5.53456e-51 1.07126e-50 2.04568e-50 3.85356e-50 7.16004e-50 1.31204e-49 2.37088e-49 4.22425e-49 7.42028e-49 1.28491e-48 2.1931e-48 3.68918e-48 6.11567e-48 9.98977e-48 1.60776e-47 2.5492e-47 3.98163e-47 6.12577e-47 9.28256e-47 1.38533e-46 2.03608e-46 2.94691e-46 4.20006e-46 5.89453e-46 8.14597e-46 1.1085e-45 1.4854e-45 1.9601e-45 2.54723e-45 3.26025e-45 4.11033e-45 5.10512e-45 6.24763e-45 7.53523e-45 8.95896e-45 1.05033e-44 1.21464e-44 1.38609e-44 1.56152e-44 1.73752e-44 1.91063e-44 2.07753e-44 2.23525e-44 2.38132e-44 2.51384e-44 2.6316e-44 2.73399e-44 2.82101e-44 2.8931e-44 2.95106e-44 2.99589e-44 3.02866e-44 3.05043e-44 3.06215e-44 3.06471e-44 3.05885e-44 3.04529e-44 3.02479e-44 2.99815e-44 2.96636e-44 2.9306e-44 2.89224e-44 2.85288e-44 2.8142e-44 2.77796e-44 2.74585e-44 2.71935e-44 2.69967e-44 2.68762e-44 2.68358e-44 2.68744e-44 2.69865e-44 2.71625e-44 2.73899e-44 2.7654e-44 2.79395e-44 2.82311e-44 2.85149e-44 2.87791e-44 2.90145e-44 2.92147e-44 2.93764e-44 2.9499e-44 2.95843e-44 2.96361e-44 2.96598e-44 2.96615e-44 2.96483e-44 2.96272e-44 2.96049e-44 2.95879e-44 2.95819e-44 2.95916e-44 2.96213e-44 2.96737e-44 2.97512e-44 2.98547e-44 2.99845e-44 3.01399e-44 3.03196e-44 3.05214e-44 3.07426e-44 3.09799e-44 3.12296e-44 3.14874e-44 3.17484e-44 3.20077e-44 3.22594e-44 3.24975e-44 3.27157e-44 3.29075e-44 3.30667e-44 3.31876e-44 3.32653e-44 3.32962e-44 3.32783e-44 3.32108e-44 3.30948e-44 3.29325e-44 3.27271e-44 3.24819e-44 3.22003e-44 3.18845e-44 3.15355e-44 3.11528e-44 3.0734e-44 3.0275e-44 2.97703e-44 2.92133e-44 2.85972e-44 2.79149e-44 2.71598e-44 2.63264e-44 2.54107e-44 2.44103e-44 2.33251e-44 2.21576e-44 2.09126e-44 1.95982e-44 1.82254e-44 1.68079e-44 1.5362e-44 1.39064e-44 1.24607e-44 1.10453e-44 9.68019e-45 8.38358e-45 7.17145e-45 6.05654e-45 5.04788e-45 4.15055e-45 3.36573e-45 2.69099e-45 2.1208e-45 1.64724e-45 1.26071e-45 9.5063e-46 7.0616e-46 5.1672e-46 3.72429e-46 2.64394e-46 1.84873e-46 1.27324e-46 8.63707e-47 5.77108e-47 3.79839e-47 2.46273e-47 1.57302e-47 9.89882e-48 6.13759e-48 3.74984e-48 2.25771e-48 1.33969e-48 7.83542e-49 4.51739e-49 2.56758e-49 1.43887e-49 7.951e-50 4.33288e-50 2.32881e-50 1.23464e-50 6.45729e-51 3.33203e-51 1.69655e-51 8.52456e-52 4.22743e-52 2.06933e-52 9.9995e-53 4.7706e-53 2.2473e-53 1.04539e-53 4.80206e-54 2.17709e-54 9.70916e-55 4.1795e-55 1.54366e-55 0 