# vtk DataFile Version 3.0
Gray-Scott Simulation Output
ASCII
DATASET STRUCTURED_POINTS
DIMENSIONS 256 256 1
SPACING 1.0 1.0 1.0
ORIGIN 0 0 0
POINT_DATA 65536
SCALARS u double
LOOKUP_TABLE default
0 0 0 0 0 0 0 0 0 0 0 0 0 0 0 0 0 0 0 0 0 0 0 0 0 0 0 0 0 0 0 0 0 0 0 0 0 0 0 0 0 0 0 0 0 0 0 0 0 0 0 0 0 0 0 0 0 0 0 0 0 0 0 0 0 0 0 0 0 0 0 0 0 0 0 0 0 0 0 0 0 0 0 0 0 0 0 0 0 0 0 0 0 0 0 0 0 0 0 0 0 0 0 0 0 0 0 0 0 0 0 0 0 0 0 0 0 0 0 0 0 0 0 0 0 0 0 0 0 0 0 0 0 0 0 0 0 0 0 0 0 0 0 0 0 0 0 0 0 0 0 0 0 0 0 0 0 0 0 0 0 0 0 0 0 0 0 0 0 0 0 0 0 0 0 0 0 0 0 0 0 0 0 0 0 0 0 0 0 0 0 0 0 0 0 0 0 0 0 0 0 0 0 0 0 0 0 0 0 0 0 0 0 0 0 0 0 0 0 0 0 0 0 0 0 0 0 0 0 0 0 0 0 0 0 0 0 0 0 0 0 0 0 0 0 0 0 0 0 0 0 0 0 0 0 0 
0 8.17498e-98 4.46042e-97 2.33204e-96 1.20631e-95 6.17995e-95 3.13543e-94 1.57529e-93 7.83677e-93 3.86002e-92 1.88226e-91 9.08591e-91 4.34128e-90 2.05298e-89 9.60799e-89 4.44955e-88 2.0389e-87 9.2433e-87 4.14541e-86 1.83895e-85 8.06852e-85 3.50098e-84 1.50214e-83 6.37252e-83 2.67264e-82 1.10803e-81 4.54038e-81 1.8387e-80 7.35796e-80 2.90922e-79 1.13636e-78 4.3845e-78 1.67083e-77 6.28776e-77 2.33643e-76 8.57122e-76 3.10389e-75 1.10938e-74 3.91296e-74 1.3618e-73 4.67567e-73 1.58353e-72 5.28928e-72 1.74214e-71 5.65742e-71 1.81104e-70 5.71403e-70 1.77658e-69 5.44231e-69 1.64232e-68 4.88126e-68 1.42865e-67 4.11679e-67 1.16775e-66 3.25996e-66 8.955e-66 2.42003e-65 6.43266e-65 1.68146e-64 4.32135e-64 1.09168e-63 2.71036e-63 6.61177e-63 1.58443e-62 3.72903e-62 8.61775e-62 1.9551e-61 4.35334e-61 9.51169e-61 2.03881e-60 4.28632e-60 8.83649e-60 1.78595e-59 3.53797e-59 6.86818e-59 1.30629e-58 2.43365e-58 4.44026e-58 7.93245e-58 1.38731e-57 2.37484e-57 3.97851e-57 6.52179e-57 1.04597e-56 1.64111e-56 2.51872e-56 3.78118e-56 5.55228e-56 7.97477e-56 1.12045e-55 1.54009e-55 2.0713e-55 2.72634e-55 3.51306e-55 4.43321e-55 5.48116e-55 6.64329e-55 7.89821e-55 9.2179e-55 1.05697e-54 1.1919e-54 1.3232e-54 1.44785e-54 1.5634e-54 1.66815e-54 1.76112e-54 1.84204e-54 1.9112e-54 1.96926e-54 2.01708e-54 2.05545e-54 2.085e-54 2.10607e-54 2.1187e-54 2.12267e-54 2.11762e-54 2.10323e-54 2.07939e-54 2.04646e-54 2.00537e-54 1.95774e-54 1.90591e-54 1.85274e-54 1.80151e-54 1.75551e-54 1.71781e-54 1.69086e-54 1.67629e-54 1.67471e-54 1.68566e-54 1.70776e-54 1.73887e-54 1.77633e-54 1.81732e-54 1.85908e-54 1.89918e-54 1.93565e-54 1.96708e-54 1.99262e-54 2.01193e-54 2.02513e-54 2.03267e-54 2.03527e-54 2.0338e-54 2.02922e-54 2.02252e-54 2.01466e-54 2.00651e-54 1.99889e-54 1.99246e-54 1.98781e-54 1.98539e-54 1.9856e-54 1.98869e-54 1.99486e-54 2.00421e-54 2.0167e-54 2.03219e-54 2.05042e-54 2.07102e-54 2.09356e-54 2.11758e-54 2.14264e-54 2.16837e-54 2.19444e-54 2.22058e-54 2.24651e-54 2.27186e-54 2.2961e-54 2.31849e-54 2.33808e-54 2.35382e-54 2.36461e-54 2.36953e-54 2.36794e-54 2.35967e-54 2.34504e-54 2.32483e-54 2.3002e-54 2.27244e-54 2.24276e-54 2.21207e-54 2.18078e-54 2.14875e-54 2.11524e-54 2.07907e-54 2.03876e-54 1.99281e-54 1.93983e-54 1.87883e-54 1.80925e-54 1.73101e-54 1.64454e-54 1.55064e-54 1.45039e-54 1.34505e-54 1.23602e-54 1.12472e-54 1.01264e-54 9.01312e-55 7.92275e-55 6.87086e-55 5.87253e-55 4.94162e-55 4.08992e-55 3.32631e-55 2.65615e-55 2.08096e-55 1.59854e-55 1.20336e-55 8.87342e-56 6.40701e-56 4.52865e-56 3.13288e-56 2.1209e-56 1.40495e-56 9.10656e-57 5.77564e-57 3.58442e-57 2.17692e-57 1.29395e-57 7.52824e-58 4.28782e-58 2.39119e-58 1.30588e-58 6.98527e-59 3.66048e-59 1.87955e-59 9.45855e-60 4.66594e-60 2.2568e-60 1.07049e-60 4.98079e-61 2.27375e-61 1.01861e-61 4.47912e-62 1.93372e-62 8.19792e-63 3.41366e-63 1.39649e-63 5.61369e-64 2.21791e-64 8.61428e-65 3.28973e-65 1.23555e-65 4.56461e-66 1.65912e-66 5.93432e-67 2.08913e-67 7.24004e-68 2.47047e-68 8.30096e-69 2.74512e-69 8.87216e-70 2.59416e-70 0 
0 4.45363e-97 2.42986e-96 1.27033e-95 6.5708e-95 3.36608e-94 1.70773e-93 8.57953e-93 4.26799e-92 2.10213e-91 1.02503e-90 4.9478e-90 2.36401e-89 1.11791e-88 5.23173e-88 2.42283e-87 1.11019e-86 5.03295e-86 2.25715e-85 1.0013e-84 4.39325e-84 1.90627e-83 8.17917e-83 3.46988e-82 1.4553e-81 6.03352e-81 2.47242e-80 1.00128e-79 4.00695e-79 1.58435e-78 6.18881e-78 2.38798e-77 9.1005e-77 3.42494e-76 1.27273e-75 4.66931e-75 1.69101e-74 6.0444e-74 2.13212e-73 7.4209e-73 2.54815e-72 8.63074e-72 2.8831e-71 9.49711e-71 3.08441e-70 9.87489e-70 3.116e-69 9.68932e-69 2.96856e-68 8.95939e-68 2.66325e-67 7.79592e-67 2.2468e-66 6.37412e-66 1.77972e-65 4.88961e-65 1.3216e-64 3.51353e-64 9.18575e-64 2.36115e-63 5.96595e-63 1.48146e-62 3.6146e-62 8.66356e-62 2.0394e-61 4.71395e-61 1.06965e-60 2.38222e-60 5.20599e-60 1.11611e-59 2.34693e-59 4.83929e-59 9.7826e-59 1.93831e-58 3.76351e-58 7.15934e-58 1.33404e-57 2.43443e-57 4.34982e-57 7.60872e-57 1.30269e-56 2.18269e-56 3.5785e-56 5.74003e-56 9.00707e-56 1.38253e-55 2.07571e-55 3.04824e-55 4.37854e-55 6.15223e-55 8.45677e-55 1.13741e-54 1.49714e-54 1.92916e-54 2.43442e-54 3.00979e-54 3.64777e-54 4.33658e-54 5.0608e-54 5.80247e-54 6.54255e-54 7.26248e-54 7.9457e-54 8.57884e-54 9.15249e-54 9.66137e-54 1.01041e-53 1.04822e-53 1.07995e-53 1.10607e-53 1.12702e-53 1.14314e-53 1.15463e-53 1.16151e-53 1.16366e-53 1.16089e-53 1.15301e-53 1.13997e-53 1.12196e-53 1.09949e-53 1.07344e-53 1.0451e-53 1.01603e-53 9.8801e-54 9.62861e-54 9.42249e-54 9.27523e-54 9.19566e-54 9.18709e-54 9.24713e-54 9.36815e-54 9.53838e-54 9.74336e-54 9.96758e-54 1.0196e-53 1.04153e-53 1.06147e-53 1.07865e-53 1.09261e-53 1.10316e-53 1.11037e-53 1.11449e-53 1.11591e-53 1.1151e-53 1.11259e-53 1.10893e-53 1.10463e-53 1.10018e-53 1.09601e-53 1.0925e-53 1.08995e-53 1.08863e-53 1.08874e-53 1.09043e-53 1.0938e-53 1.0989e-53 1.10571e-53 1.11417e-53 1.12412e-53 1.13537e-53 1.14768e-53 1.1608e-53 1.17449e-53 1.18854e-53 1.20278e-53 1.21706e-53 1.23123e-53 1.24508e-53 1.25833e-53 1.27057e-53 1.28128e-53 1.28989e-53 1.2958e-53 1.29849e-53 1.29762e-53 1.29311e-53 1.28511e-53 1.27407e-53 1.26061e-53 1.24543e-53 1.22921e-53 1.21244e-53 1.19535e-53 1.17785e-53 1.15955e-53 1.13979e-53 1.11778e-53 1.09267e-53 1.06373e-53 1.0304e-53 9.9237e-54 9.49603e-54 9.02321e-54 8.50959e-54 7.96104e-54 7.38446e-54 6.78737e-54 6.1776e-54 5.56328e-54 4.95273e-54 4.35447e-54 3.77707e-54 3.22883e-54 2.71742e-54 2.24937e-54 1.8296e-54 1.46111e-54 1.14478e-54 8.79427e-55 6.62036e-55 4.88177e-55 3.52479e-55 2.49133e-55 1.72339e-55 1.16662e-55 7.72745e-56 5.00825e-56 3.17603e-56 1.97084e-56 1.19679e-56 7.11266e-57 4.13756e-57 2.35624e-57 1.3138e-57 7.1737e-58 3.83661e-58 2.01013e-58 1.03196e-58 5.19222e-59 2.56086e-59 1.23839e-59 5.87305e-60 2.73211e-60 1.24698e-60 5.58524e-61 2.45552e-61 1.05989e-61 4.49254e-62 1.87037e-62 7.65007e-63 3.07466e-63 1.21455e-63 4.71645e-64 1.80087e-64 6.76252e-65 2.49793e-65 9.07793e-66 3.24647e-66 1.14271e-66 3.95959e-67 1.35091e-67 4.53852e-68 1.50068e-68 4.84956e-69 1.41783e-69 0 
0 2.32464e-96 1.26823e-95 6.63e-95 3.42919e-94 1.75662e-93 8.91151e-93 4.47691e-92 2.22701e-91 1.09684e-90 5.34816e-90 2.58148e-89 1.23337e-88 5.83235e-88 2.72944e-87 1.26399e-86 5.7918e-86 2.62565e-85 1.17753e-84 5.22368e-84 2.29193e-83 9.94497e-83 4.26712e-82 1.81029e-81 7.59266e-81 3.14793e-80 1.29e-79 5.2244e-79 2.09081e-78 8.2674e-78 3.22959e-77 1.24622e-76 4.74957e-76 1.7876e-75 6.64327e-75 2.43743e-74 8.82795e-74 3.15576e-73 1.11327e-72 3.87514e-72 1.33076e-71 4.50784e-71 1.50601e-70 4.96147e-70 1.61155e-69 5.16012e-69 1.62848e-68 5.06452e-68 1.55186e-67 4.68436e-67 1.39268e-66 4.07733e-66 1.17529e-65 3.33484e-65 9.31283e-65 2.55907e-64 6.91812e-64 1.83956e-63 4.81026e-63 1.2367e-62 3.12541e-62 7.76256e-62 1.89437e-61 4.54144e-61 1.06928e-60 2.47211e-60 5.61076e-60 1.24984e-59 2.73194e-59 5.85831e-59 1.23214e-58 2.54118e-58 5.1381e-58 1.01827e-57 1.97755e-57 3.76268e-57 7.01266e-57 1.27996e-56 2.28747e-56 4.00198e-56 6.85303e-56 1.14844e-55 1.88316e-55 3.02109e-55 4.74126e-55 7.27847e-55 1.0929e-54 1.60512e-54 2.30581e-54 3.24008e-54 4.45401e-54 5.99071e-54 7.88557e-54 1.01611e-53 1.28221e-53 1.58521e-53 1.92114e-53 2.28375e-53 2.66493e-53 3.05518e-53 3.44448e-53 3.82304e-53 4.18216e-53 4.5148e-53 4.81603e-53 5.0831e-53 5.3153e-53 5.51352e-53 5.67976e-53 5.8165e-53 5.9261e-53 6.01042e-53 6.07047e-53 6.10639e-53 6.11755e-53 6.10292e-53 6.06155e-53 5.99317e-53 5.89873e-53 5.78091e-53 5.64438e-53 5.49577e-53 5.34336e-53 5.19647e-53 5.06463e-53 4.95659e-53 4.87942e-53 4.83776e-53 4.83333e-53 4.86489e-53 4.92842e-53 5.01774e-53 5.12528e-53 5.24288e-53 5.36266e-53 5.47763e-53 5.58217e-53 5.67222e-53 5.74536e-53 5.80065e-53 5.83841e-53 5.85996e-53 5.86735e-53 5.86309e-53 5.84994e-53 5.83073e-53 5.80819e-53 5.78488e-53 5.76304e-53 5.74463e-53 5.7313e-53 5.72438e-53 5.72492e-53 5.73374e-53 5.75136e-53 5.77804e-53 5.81371e-53 5.85797e-53 5.91007e-53 5.96896e-53 6.0334e-53 6.10208e-53 6.17374e-53 6.2473e-53 6.32187e-53 6.39667e-53 6.47089e-53 6.54347e-53 6.61289e-53 6.67703e-53 6.73321e-53 6.77835e-53 6.80934e-53 6.82348e-53 6.81899e-53 6.79534e-53 6.75345e-53 6.69559e-53 6.62505e-53 6.54554e-53 6.46055e-53 6.37268e-53 6.28316e-53 6.19151e-53 6.09567e-53 5.99223e-53 5.87697e-53 5.74551e-53 5.59395e-53 5.41935e-53 5.22008e-53 4.99595e-53 4.74808e-53 4.47873e-53 4.19095e-53 3.88834e-53 3.57481e-53 3.25447e-53 2.93156e-53 2.61046e-53 2.29566e-53 1.99168e-53 1.70292e-53 1.43344e-53 1.18671e-53 9.65367e-54 7.71012e-54 6.04131e-54 4.64118e-54 3.49397e-54 2.57641e-54 1.86021e-54 1.31475e-54 9.09428e-55 6.15576e-55 4.07706e-55 2.64211e-55 1.67531e-55 1.03945e-55 6.31115e-56 3.7502e-56 2.1812e-56 1.24192e-56 6.92347e-57 3.7797e-57 2.02105e-57 1.05869e-57 5.434e-58 2.7335e-58 1.34791e-58 6.51692e-59 3.08998e-59 1.43714e-59 6.55792e-60 2.93668e-60 1.29082e-60 5.5705e-61 2.36066e-61 9.82605e-62 4.01816e-62 1.61463e-62 6.37683e-63 2.47582e-63 9.45154e-64 3.54852e-64 1.31051e-64 4.76176e-65 1.70261e-65 5.99195e-66 2.07591e-66 7.08131e-67 2.37867e-67 7.86399e-68 2.54094e-68 7.42789e-69 0 
0 1.20044e-95 6.54884e-95 3.42339e-94 1.77057e-93 9.06942e-93 4.60082e-92 2.31124e-91 1.14967e-90 5.66214e-90 2.76077e-89 1.33255e-88 6.36649e-88 3.01052e-87 1.40885e-86 6.52426e-86 2.98949e-85 1.35525e-84 6.07793e-84 2.69626e-83 1.18302e-82 5.13332e-82 2.20261e-81 9.34458e-81 3.91939e-80 1.62503e-79 6.65951e-79 2.69716e-78 1.07945e-77 4.26856e-77 1.66757e-76 6.43513e-76 2.4527e-75 9.23189e-75 3.43112e-74 1.25899e-73 4.56022e-73 1.63031e-72 5.75187e-72 2.00235e-71 6.87698e-71 2.32979e-70 7.78447e-70 2.56487e-69 8.33213e-69 2.66827e-68 8.42197e-68 2.6196e-67 8.02816e-67 2.42372e-66 7.20698e-66 2.11034e-65 6.0841e-65 1.72665e-64 4.82272e-64 1.32548e-63 3.58398e-63 9.53186e-63 2.493e-62 6.41072e-62 1.62047e-61 4.02564e-61 9.82632e-61 2.35622e-60 5.54898e-60 1.28318e-59 2.913e-59 6.49043e-59 1.41903e-58 3.04363e-58 6.40295e-58 1.32086e-57 2.6713e-57 5.29521e-57 1.02859e-56 1.95753e-56 3.64912e-56 6.66182e-56 1.1908e-55 2.08375e-55 3.5689e-55 5.98186e-55 9.81044e-55 1.57411e-54 2.47075e-54 3.79344e-54 5.69673e-54 8.36752e-54 1.20213e-53 1.68934e-53 2.3224e-53 3.12378e-53 4.11191e-53 5.2985e-53 6.68599e-53 8.26567e-53 1.00167e-52 1.19066e-52 1.38926e-52 1.59255e-52 1.79526e-52 1.99232e-52 2.17917e-52 2.35216e-52 2.50874e-52 2.64747e-52 2.76802e-52 2.87086e-52 2.95706e-52 3.02791e-52 3.08467e-52 3.12831e-52 3.15937e-52 3.17792e-52 3.18365e-52 3.17601e-52 3.15452e-52 3.11901e-52 3.07e-52 3.00885e-52 2.938e-52 2.86087e-52 2.78177e-52 2.70555e-52 2.63713e-52 2.58107e-52 2.54104e-52 2.51945e-52 2.51719e-52 2.53361e-52 2.56662e-52 2.61302e-52 2.66886e-52 2.72992e-52 2.79209e-52 2.85176e-52 2.906e-52 2.95272e-52 2.99066e-52 3.01933e-52 3.0389e-52 3.05006e-52 3.05388e-52 3.05166e-52 3.04483e-52 3.03485e-52 3.02316e-52 3.01107e-52 2.99974e-52 2.99019e-52 2.98328e-52 2.97968e-52 2.97996e-52 2.98452e-52 2.99364e-52 3.00745e-52 3.02593e-52 3.04886e-52 3.07585e-52 3.10636e-52 3.13976e-52 3.17535e-52 3.21248e-52 3.25061e-52 3.28926e-52 3.32804e-52 3.36653e-52 3.40417e-52 3.44017e-52 3.47345e-52 3.50261e-52 3.52604e-52 3.54214e-52 3.54949e-52 3.54718e-52 3.53492e-52 3.5132e-52 3.48319e-52 3.4466e-52 3.40536e-52 3.36128e-52 3.31572e-52 3.2693e-52 3.2218e-52 3.17212e-52 3.11852e-52 3.05879e-52 2.99066e-52 2.91209e-52 2.82157e-52 2.71822e-52 2.60196e-52 2.47334e-52 2.33353e-52 2.18409e-52 2.02688e-52 1.86392e-52 1.69733e-52 1.52931e-52 1.36215e-52 1.19817e-52 1.03974e-52 8.89169e-53 7.48593e-53 6.19837e-53 5.04289e-53 4.02801e-53 3.1564e-53 2.42498e-53 1.82562e-53 1.34619e-53 9.71944e-54 6.86914e-54 4.75117e-54 3.21572e-54 2.12961e-54 1.37992e-54 8.74873e-55 5.4274e-55 3.2948e-55 1.9575e-55 1.13833e-55 6.48019e-56 3.61188e-56 1.97143e-56 1.05393e-56 5.51967e-57 2.8325e-57 1.42455e-57 7.02302e-58 3.39475e-58 1.60925e-58 7.48287e-59 3.41381e-59 1.52838e-59 6.71654e-60 2.89785e-60 1.22778e-60 5.10941e-61 2.08894e-61 8.39223e-62 3.31375e-62 1.2863e-62 4.90953e-63 1.84288e-63 6.80466e-64 2.47202e-64 8.83729e-65 3.10952e-65 1.0771e-65 3.67357e-66 1.23378e-66 4.07828e-67 1.31754e-67 3.85105e-68 0 
0 6.13931e-95 3.34905e-94 1.75062e-93 9.05379e-93 4.63744e-92 2.35243e-91 1.18171e-90 5.87795e-90 2.89481e-89 1.41143e-88 6.81244e-88 3.25471e-87 1.53903e-86 7.20221e-86 3.33525e-85 1.52825e-84 6.92815e-84 3.1071e-83 1.37837e-82 6.04785e-82 2.62432e-81 1.12607e-80 4.77748e-80 2.00388e-79 8.30866e-79 3.40509e-78 1.37916e-77 5.51992e-77 2.1829e-76 8.52831e-76 3.29128e-75 1.25454e-74 4.7224e-74 1.75527e-73 6.4412e-73 2.33331e-72 8.34254e-72 2.94363e-71 1.02485e-70 3.52022e-70 1.19273e-69 3.98573e-69 1.31342e-68 4.2673e-68 1.36675e-67 4.31459e-67 1.34223e-66 4.11414e-66 1.24228e-65 3.69458e-65 1.08203e-64 3.12008e-64 8.85638e-64 2.47417e-63 6.8014e-63 1.83941e-62 4.89308e-62 1.28003e-61 3.2923e-61 8.32401e-61 2.06835e-60 5.04987e-60 1.21117e-59 2.85303e-59 6.5991e-59 1.49845e-58 3.3395e-58 7.30305e-58 1.56679e-57 3.2969e-57 6.80278e-57 1.37612e-56 2.72849e-56 5.30132e-56 1.00914e-55 1.8816e-55 3.4358e-55 6.14281e-55 1.07513e-54 1.84178e-54 3.08761e-54 5.06467e-54 8.12774e-54 1.27594e-53 1.95928e-53 2.94268e-53 4.32277e-53 6.21095e-53 8.72884e-53 1.20006e-52 1.61422e-52 2.12489e-52 2.73808e-52 3.45503e-52 4.27119e-52 5.17573e-52 6.15177e-52 7.17726e-52 8.22659e-52 9.27264e-52 1.02891e-51 1.12524e-51 1.21439e-51 1.29503e-51 1.36644e-51 1.42844e-51 1.48131e-51 1.52558e-51 1.56195e-51 1.59107e-51 1.61345e-51 1.62936e-51 1.63886e-51 1.64177e-51 1.63782e-51 1.62675e-51 1.60848e-51 1.58327e-51 1.55183e-51 1.5154e-51 1.47573e-51 1.43506e-51 1.39586e-51 1.36068e-51 1.33186e-51 1.31129e-51 1.3002e-51 1.29905e-51 1.30752e-51 1.32452e-51 1.3484e-51 1.37713e-51 1.40854e-51 1.44052e-51 1.47121e-51 1.49909e-51 1.52311e-51 1.54261e-51 1.55734e-51 1.56739e-51 1.57311e-51 1.57507e-51 1.57392e-51 1.5704e-51 1.56527e-51 1.55926e-51 1.55304e-51 1.54722e-51 1.54232e-51 1.53876e-51 1.53691e-51 1.53705e-51 1.53938e-51 1.54406e-51 1.55115e-51 1.56063e-51 1.5724e-51 1.58626e-51 1.60193e-51 1.61907e-51 1.63734e-51 1.65642e-51 1.676e-51 1.69585e-51 1.71577e-51 1.73554e-51 1.75488e-51 1.77339e-51 1.7905e-51 1.80549e-51 1.81755e-51 1.82583e-51 1.82962e-51 1.82844e-51 1.82215e-51 1.81099e-51 1.79556e-51 1.77676e-51 1.75556e-51 1.73291e-51 1.7095e-51 1.68565e-51 1.66125e-51 1.63575e-51 1.60822e-51 1.57755e-51 1.54257e-51 1.50222e-51 1.45572e-51 1.40262e-51 1.34286e-51 1.27673e-51 1.20482e-51 1.12793e-51 1.04701e-51 9.63084e-52 8.77241e-52 7.90613e-52 7.04373e-52 6.19729e-52 5.37907e-52 4.60105e-52 3.87434e-52 3.20846e-52 2.61069e-52 2.0855e-52 1.63434e-52 1.25568e-52 9.45346e-53 6.97083e-53 5.0328e-53 3.55672e-53 2.45991e-53 1.66479e-53 1.10239e-53 7.14229e-54 4.52761e-54 2.80835e-54 1.70458e-54 1.01255e-54 5.88709e-55 3.35071e-55 1.86722e-55 1.01895e-55 5.44618e-56 2.85165e-56 1.46304e-56 7.35636e-57 3.62585e-57 1.75224e-57 8.30437e-58 3.86055e-58 1.76083e-58 7.8815e-59 3.46274e-59 1.49365e-59 6.32691e-60 2.63235e-60 1.07597e-60 4.32171e-61 1.70609e-61 6.62112e-62 2.52659e-62 9.48207e-63 3.50044e-63 1.2714e-63 4.54427e-64 1.59866e-64 5.53656e-65 1.88796e-65 6.33966e-66 2.09523e-66 6.76783e-67 1.97792e-67 0 
0 3.10934e-94 1.6961e-93 8.8655e-93 4.58482e-92 2.3483e-91 1.19118e-90 5.98354e-90 2.97618e-89 1.46569e-88 7.14616e-88 3.44912e-87 1.64782e-86 7.79186e-86 3.64635e-85 1.68857e-84 7.73722e-84 3.50761e-83 1.57309e-82 6.97862e-82 3.06205e-81 1.32873e-80 5.70163e-80 2.41906e-79 1.01469e-78 4.20739e-78 1.72437e-77 6.98454e-77 2.79564e-76 1.10563e-75 4.31984e-75 1.66725e-74 6.35556e-74 2.39259e-73 8.89381e-73 3.26401e-72 1.1825e-71 4.22837e-71 1.49213e-70 5.19559e-70 1.78483e-69 6.04818e-69 2.02139e-68 6.66201e-68 2.16481e-67 6.93463e-67 2.18948e-66 6.81242e-66 2.08847e-65 6.3073e-65 1.87616e-64 5.49576e-64 1.58503e-63 4.50002e-63 1.25741e-62 3.45731e-62 9.35217e-62 2.48835e-61 6.51099e-61 1.67505e-60 4.23606e-60 1.05283e-59 2.5711e-59 6.16812e-59 1.45332e-58 3.36239e-58 7.63688e-58 1.70242e-57 3.72392e-57 7.99132e-57 1.68199e-56 3.47148e-56 7.02418e-56 1.39306e-55 2.70731e-55 5.15477e-55 9.61369e-55 1.75587e-54 3.13999e-54 5.4969e-54 9.41854e-54 1.57926e-53 2.59098e-53 4.1587e-53 6.52963e-53 1.00281e-52 1.50634e-52 2.21305e-52 3.18003e-52 4.46956e-52 6.14521e-52 8.26641e-52 1.08818e-51 1.4022e-51 1.76933e-51 2.1872e-51 2.65025e-51 3.14979e-51 3.6745e-51 4.21124e-51 4.74612e-51 5.26563e-51 5.75778e-51 6.21295e-51 6.62445e-51 6.98861e-51 7.3046e-51 7.57382e-51 7.79915e-51 7.98412e-51 8.13211e-51 8.24576e-51 8.32654e-51 8.37466e-51 8.38929e-51 8.36903e-51 8.31256e-51 8.21945e-51 8.09099e-51 7.93078e-51 7.74513e-51 7.54304e-51 7.33579e-51 7.13607e-51 6.95683e-51 6.81001e-51 6.70522e-51 6.64879e-51 6.64305e-51 6.68629e-51 6.77302e-51 6.8948e-51 7.0413e-51 7.20141e-51 7.3644e-51 7.52075e-51 7.66283e-51 7.78515e-51 7.88442e-51 7.95939e-51 8.01054e-51 8.03966e-51 8.04956e-51 8.04366e-51 8.02572e-51 7.99958e-51 7.96896e-51 7.93729e-51 7.90765e-51 7.88266e-51 7.86455e-51 7.85511e-51 7.85578e-51 7.86765e-51 7.89142e-51 7.92747e-51 7.97569e-51 8.03554e-51 8.10602e-51 8.18571e-51 8.27293e-51 8.36591e-51 8.46295e-51 8.56258e-51 8.66361e-51 8.76499e-51 8.86565e-51 8.96413e-51 9.05839e-51 9.14556e-51 9.22196e-51 9.28341e-51 9.32565e-51 9.34502e-51 9.33905e-51 9.30703e-51 9.2502e-51 9.17165e-51 9.07587e-51 8.96792e-51 8.85258e-51 8.7334e-51 8.61203e-51 8.48788e-51 8.35812e-51 8.2181e-51 8.06208e-51 7.8841e-51 7.67878e-51 7.44209e-51 7.17177e-51 6.86746e-51 6.53061e-51 6.16418e-51 5.7722e-51 5.35947e-51 4.93119e-51 4.49289e-51 4.05032e-51 3.60947e-51 3.17653e-51 2.75778e-51 2.3594e-51 1.98712e-51 1.64586e-51 1.33939e-51 1.07006e-51 8.38636e-52 6.44365e-52 4.85123e-52 3.5772e-52 2.5826e-52 1.82505e-52 1.26216e-52 8.54108e-53 5.65513e-53 3.66344e-53 2.32197e-53 1.44003e-53 8.73904e-54 5.19019e-54 3.01706e-54 1.71685e-54 9.56532e-55 5.2187e-55 2.7887e-55 1.45985e-55 7.48798e-56 3.76415e-56 1.85485e-56 8.9616e-57 4.24612e-57 1.97346e-57 8.99888e-58 4.02691e-58 1.76879e-58 7.62781e-59 3.23026e-59 1.34365e-59 5.49083e-60 2.20491e-60 8.70236e-61 3.37651e-61 1.28818e-61 4.83335e-62 1.78392e-62 6.47801e-63 2.31492e-63 8.14219e-64 2.81929e-64 9.61194e-65 3.22704e-65 1.06633e-65 3.4438e-66 1.00632e-66 0 
0 1.55939e-93 8.50586e-93 4.44582e-92 2.29908e-91 1.17753e-90 5.97283e-90 3.00019e-89 1.49224e-88 7.34875e-88 3.5829e-87 1.72928e-86 8.26157e-86 3.90652e-85 1.82812e-84 8.4658e-84 3.87914e-83 1.75859e-82 7.88705e-82 3.49896e-81 1.5353e-80 6.66238e-80 2.85893e-79 1.21302e-78 5.08832e-78 2.10995e-77 8.64796e-77 3.50304e-76 1.40222e-75 5.54592e-75 2.16702e-74 8.36433e-74 3.18875e-73 1.20053e-72 4.46308e-72 1.63811e-71 5.93523e-71 2.12255e-70 7.49106e-70 2.60872e-69 8.96284e-69 3.03761e-68 1.01536e-67 3.34689e-67 1.08774e-66 3.48495e-66 1.1005e-65 3.42471e-65 1.05009e-64 3.17194e-64 9.43703e-64 2.76491e-63 7.97587e-63 2.26489e-62 6.32999e-62 1.74085e-61 4.71015e-61 1.25353e-60 3.28075e-60 8.44228e-60 2.13551e-59 5.30892e-59 1.29682e-58 3.11189e-58 7.33409e-58 1.69726e-57 3.85595e-57 8.59799e-57 1.88125e-56 4.03815e-56 8.50166e-56 1.75514e-55 3.55229e-55 7.04686e-55 1.36986e-54 2.60891e-54 4.86686e-54 8.89112e-54 1.59036e-53 2.78473e-53 4.77248e-53 8.00395e-53 1.31341e-52 2.1085e-52 3.31114e-52 5.08598e-52 7.64082e-52 1.1227e-51 1.61342e-51 2.26786e-51 3.1183e-51 4.19485e-51 5.52217e-51 7.11577e-51 8.97866e-51 1.10987e-50 1.34476e-50 1.5981e-50 1.86413e-50 2.13618e-50 2.40717e-50 2.67027e-50 2.91938e-50 3.14965e-50 3.35769e-50 3.54168e-50 3.70121e-50 3.83703e-50 3.95063e-50 4.04381e-50 4.11832e-50 4.1755e-50 4.2161e-50 4.24026e-50 4.24755e-50 4.23725e-50 4.2087e-50 4.16168e-50 4.09682e-50 4.01594e-50 3.92221e-50 3.82019e-50 3.71556e-50 3.61474e-50 3.52425e-50 3.45014e-50 3.39727e-50 3.36882e-50 3.36597e-50 3.38785e-50 3.43169e-50 3.49323e-50 3.56723e-50 3.6481e-50 3.7304e-50 3.80933e-50 3.88104e-50 3.94277e-50 3.99285e-50 4.03066e-50 4.05644e-50 4.0711e-50 4.07607e-50 4.07307e-50 4.06401e-50 4.05081e-50 4.03535e-50 4.01937e-50 4.00441e-50 3.9918e-50 3.98266e-50 3.97789e-50 3.97822e-50 3.98418e-50 3.99616e-50 4.01431e-50 4.0386e-50 4.06876e-50 4.10428e-50 4.14445e-50 4.18841e-50 4.23528e-50 4.28419e-50 4.33443e-50 4.38537e-50 4.43649e-50 4.48726e-50 4.53694e-50 4.58451e-50 4.6285e-50 4.66708e-50 4.69811e-50 4.71946e-50 4.72926e-50 4.72628e-50 4.71013e-50 4.68146e-50 4.64183e-50 4.5935e-50 4.53904e-50 4.48085e-50 4.42073e-50 4.35953e-50 4.29694e-50 4.23154e-50 4.16097e-50 4.08235e-50 3.99264e-50 3.88914e-50 3.76979e-50 3.63345e-50 3.47993e-50 3.30993e-50 3.12494e-50 2.92696e-50 2.7184e-50 2.50186e-50 2.28014e-50 2.05611e-50 1.83282e-50 1.6134e-50 1.40106e-50 1.19893e-50 1.00995e-50 8.36641e-51 6.80947e-51 5.44076e-51 4.26442e-51 3.27672e-51 2.46699e-51 1.8191e-51 1.31328e-51 9.28008e-52 6.41736e-52 4.34225e-52 2.87471e-52 1.86201e-52 1.18001e-52 7.31689e-53 4.43958e-53 2.63619e-53 1.53211e-53 8.71659e-54 4.85531e-54 2.64838e-54 1.41487e-54 7.40486e-55 3.79723e-55 1.90836e-55 9.40139e-56 4.54106e-56 2.15106e-56 9.9948e-57 4.55641e-57 2.03842e-57 8.95131e-58 3.8592e-58 1.6339e-58 6.79458e-59 2.77592e-59 1.11443e-59 4.39739e-60 1.70578e-60 6.5062e-61 2.44062e-61 9.00594e-62 3.26965e-62 1.16816e-62 4.10786e-63 1.42209e-63 4.84742e-64 1.62712e-64 5.37561e-65 1.73579e-65 5.07144e-66 0 
0 7.7435e-93 4.22362e-92 2.20751e-91 1.14153e-90 5.84643e-90 2.96543e-89 1.48952e-88 7.40843e-88 3.64832e-87 1.77872e-86 8.58486e-86 4.10137e-85 1.93934e-84 9.07552e-84 4.20278e-83 1.92579e-82 8.73062e-82 3.91564e-81 1.73715e-80 7.62258e-80 3.30791e-79 1.41953e-78 6.0232e-78 2.5267e-77 1.04779e-76 4.29478e-76 1.7398e-75 6.96467e-75 2.7548e-74 1.0765e-73 4.15545e-73 1.58433e-72 5.96544e-72 2.21793e-71 8.14146e-71 2.95017e-70 1.05517e-69 3.72443e-69 1.29719e-68 4.45739e-68 1.51088e-67 5.05109e-67 1.66523e-66 5.41288e-66 1.73451e-65 5.47828e-65 1.70514e-64 5.22935e-64 1.5799e-63 4.70141e-63 1.37773e-62 3.97517e-62 1.12907e-61 3.15628e-61 8.68231e-61 2.3497e-60 6.25488e-60 1.63744e-59 4.21467e-59 1.06639e-58 2.65177e-58 6.47926e-58 1.55521e-57 3.66632e-57 8.48696e-57 1.92866e-56 4.30175e-56 9.41494e-56 2.02151e-55 4.25715e-55 8.79121e-55 1.77978e-54 3.53161e-54 6.8671e-54 1.30819e-53 2.44104e-53 4.4606e-53 7.98069e-53 1.39776e-52 2.39603e-52 4.01927e-52 6.59679e-52 1.05923e-51 1.66369e-51 2.55587e-51 3.84032e-51 5.64346e-51 8.11105e-51 1.14021e-50 1.56789e-50 2.10929e-50 2.77677e-50 3.57811e-50 4.51475e-50 5.58056e-50 6.76115e-50 8.03419e-50 9.37063e-50 1.07368e-49 1.20971e-49 1.34172e-49 1.46665e-49 1.58206e-49 1.68626e-49 1.77835e-49 1.85814e-49 1.92601e-49 1.98273e-49 2.02923e-49 2.06638e-49 2.09488e-49 2.11509e-49 2.1271e-49 2.13069e-49 2.12551e-49 2.11121e-49 2.08768e-49 2.05524e-49 2.01479e-49 1.96791e-49 1.91688e-49 1.86455e-49 1.81412e-49 1.76887e-49 1.73181e-49 1.70537e-49 1.69116e-49 1.68976e-49 1.70073e-49 1.72269e-49 1.7535e-49 1.79053e-49 1.831e-49 1.87217e-49 1.91164e-49 1.9475e-49 1.97836e-49 2.00339e-49 2.02228e-49 2.03515e-49 2.04247e-49 2.04494e-49 2.04343e-49 2.03889e-49 2.03228e-49 2.02455e-49 2.01656e-49 2.00908e-49 2.00278e-49 1.99821e-49 1.99582e-49 1.99598e-49 1.99895e-49 2.00492e-49 2.01398e-49 2.0261e-49 2.04116e-49 2.05889e-49 2.07895e-49 2.1009e-49 2.12431e-49 2.14874e-49 2.17383e-49 2.19927e-49 2.22481e-49 2.25018e-49 2.27501e-49 2.29879e-49 2.32079e-49 2.34009e-49 2.35562e-49 2.36631e-49 2.37122e-49 2.36974e-49 2.36168e-49 2.34735e-49 2.32754e-49 2.30338e-49 2.27616e-49 2.24707e-49 2.21703e-49 2.18646e-49 2.1552e-49 2.12254e-49 2.08732e-49 2.04806e-49 2.00327e-49 1.95159e-49 1.89198e-49 1.82386e-49 1.74713e-49 1.66214e-49 1.56961e-49 1.47055e-49 1.36614e-49 1.25768e-49 1.14656e-49 1.03421e-49 9.22157e-50 8.11979e-50 7.05288e-50 6.03674e-50 5.08622e-50 4.21415e-50 3.43041e-50 2.74119e-50 2.14869e-50 1.65111e-50 1.24312e-50 9.16641e-51 6.61736e-51 4.67578e-51 3.23313e-51 2.18744e-51 1.44798e-51 9.37754e-52 5.94188e-52 3.68375e-52 2.23472e-52 1.3267e-52 7.70889e-53 4.38481e-53 2.44186e-53 1.33161e-53 7.11227e-54 3.72132e-54 1.90781e-54 9.58548e-55 4.72095e-55 2.2797e-55 1.07958e-55 5.01486e-56 2.28554e-56 1.02222e-56 4.48764e-57 1.93425e-57 8.18697e-58 3.40366e-58 1.3902e-58 5.57972e-59 2.20112e-59 8.53615e-60 3.25507e-60 1.22076e-60 4.50355e-61 1.63466e-61 5.83887e-62 2.0528e-62 7.105e-63 2.42135e-63 8.12605e-64 2.68412e-64 8.66542e-65 2.53139e-65 0 
0 3.80699e-92 2.07641e-91 1.08521e-90 5.61162e-90 2.87394e-89 1.45769e-88 7.3217e-88 3.64154e-87 1.79327e-86 8.74292e-86 4.21967e-85 2.01592e-84 9.53235e-84 4.46086e-83 2.0658e-82 9.46601e-82 4.29152e-81 1.92477e-80 8.53936e-80 3.74718e-79 1.6262e-78 6.97883e-78 2.96133e-77 1.24233e-76 5.15208e-76 2.11191e-75 8.55588e-75 3.42529e-74 1.35494e-73 5.29521e-73 2.04422e-72 7.79468e-72 2.93521e-71 1.09142e-70 4.00679e-70 1.45209e-69 5.19426e-69 1.83367e-68 6.3874e-68 2.19517e-67 7.44191e-67 2.48833e-66 8.20484e-66 2.66747e-65 8.54921e-65 2.7007e-64 8.40767e-64 2.57899e-63 7.79332e-63 2.31961e-62 6.79901e-62 1.96217e-61 5.57445e-61 1.5587e-60 4.28871e-60 1.16095e-59 3.09123e-59 8.09455e-59 2.08404e-58 5.27447e-58 1.31195e-57 3.20648e-57 7.69866e-57 1.81544e-56 4.20368e-56 9.55568e-56 2.13195e-55 4.66744e-55 1.00246e-54 2.11173e-54 4.36209e-54 8.83364e-54 1.75337e-53 3.41033e-53 6.49856e-53 1.21294e-52 2.21705e-52 3.96766e-52 6.95082e-52 1.19179e-51 1.99966e-51 3.28273e-51 5.27206e-51 8.28214e-51 1.27258e-50 1.9124e-50 2.81071e-50 4.04014e-50 5.67997e-50 7.81102e-50 1.05087e-49 1.38345e-49 1.7827e-49 2.24931e-49 2.78018e-49 3.36811e-49 4.00192e-49 4.66709e-49 5.34681e-49 6.02335e-49 6.67954e-49 7.30019e-49 7.8732e-49 8.3902e-49 8.84676e-49 9.24203e-49 9.57801e-49 9.85856e-49 1.00883e-48 1.02718e-48 1.04124e-48 1.05121e-48 1.05712e-48 1.05888e-48 1.05629e-48 1.04919e-48 1.03753e-48 1.02145e-48 1.00141e-48 9.78185e-49 9.52902e-49 9.26972e-49 9.01984e-49 8.79563e-49 8.61203e-49 8.48111e-49 8.41077e-49 8.40396e-49 8.45847e-49 8.56741e-49 8.72019e-49 8.90382e-49 9.10438e-49 9.30841e-49 9.50402e-49 9.68164e-49 9.83445e-49 9.95836e-49 1.00518e-48 1.01155e-48 1.01517e-48 1.01638e-48 1.01563e-48 1.01337e-48 1.0101e-48 1.00627e-48 1.00231e-48 9.98608e-49 9.95486e-49 9.93221e-49 9.92037e-49 9.92111e-49 9.93578e-49 9.96529e-49 1.00101e-48 1.007e-48 1.01445e-48 1.02322e-48 1.03314e-48 1.044e-48 1.05558e-48 1.06766e-48 1.08008e-48 1.09267e-48 1.10531e-48 1.11787e-48 1.13016e-48 1.14194e-48 1.15284e-48 1.1624e-48 1.1701e-48 1.1754e-48 1.17785e-48 1.17712e-48 1.17313e-48 1.16604e-48 1.15623e-48 1.14426e-48 1.13078e-48 1.11638e-48 1.10151e-48 1.08638e-48 1.07091e-48 1.05476e-48 1.03734e-48 1.01793e-48 9.95779e-49 9.70213e-49 9.40719e-49 9.07006e-49 8.6902e-49 8.2693e-49 7.8109e-49 7.3199e-49 6.80212e-49 6.26395e-49 5.7122e-49 5.15403e-49 4.59696e-49 4.04885e-49 3.51776e-49 3.01165e-49 2.53797e-49 2.10319e-49 1.71229e-49 1.36842e-49 1.07273e-49 8.24352e-50 6.20668e-50 4.57659e-50 3.30379e-50 2.33429e-50 1.61394e-50 1.09183e-50 7.22641e-51 4.67934e-51 2.96447e-51 1.83753e-51 1.1145e-51 6.61511e-52 3.84291e-52 2.18533e-52 1.21669e-52 6.63328e-53 3.54197e-53 1.85275e-53 9.49593e-54 4.76976e-54 2.3485e-54 1.13375e-54 5.36748e-55 2.49259e-55 1.13568e-55 5.07794e-56 2.22864e-56 9.60311e-57 4.06351e-57 1.6889e-57 6.89631e-58 2.76716e-58 1.09131e-58 4.23111e-59 1.61302e-59 6.04783e-60 2.23058e-60 8.0944e-61 2.89058e-61 1.01602e-61 3.51578e-62 1.1979e-62 4.01928e-63 1.32734e-63 4.28435e-64 1.25136e-64 0 