# vtk DataFile Version 3.0
Gray-Scott Simulation Output
ASCII
DATASET STRUCTURED_POINTS
DIMENSIONS 256 256 1
SPACING 1.0 1.0 1.0
ORIGIN 0 0 0
POINT_DATA 65536
SCALARS u double
LOOKUP_TABLE default
0 0 0 0 0 0 0 0 0 0 0 0 0 0 0 0 0 0 0 0 0 0 0 0 0 0 0 0 0 0 0 0 0 0 0 0 0 0 0 0 0 0 0 0 0 0 0 0 0 0 0 0 0 0 0 0 0 0 0 0 0 0 0 0 0 0 0 0 0 0 0 0 0 0 0 0 0 0 0 0 0 0 0 0 0 0 0 0 0 0 0 0 0 0 0 0 0 0 0 0 0 0 0 0 0 0 0 0 0 0 0 0 0 0 0 0 0 0 0 0 0 0 0 0 0 0 0 0 0 0 0 0 0 0 0 0 0 0 0 0 0 0 0 0 0 0 0 0 0 0 0 0 0 0 0 0 0 0 0 0 0 0 0 0 0 0 0 0 0 0 0 0 0 0 0 0 0 0 0 0 0 0 0 0 0 0 0 0 0 0 0 0 0 0 0 0 0 0 0 0 0 0 0 0 0 0 0 0 0 0 0 0 0 0 0 0 0 0 0 0 0 0 0 0 0 0 0 0 0 0 0 0 0 0 0 0 0 0 0 0 0 0 0 0 0 0 0 0 0 0 0 0 0 0 0 0 
0 1.1559e-88 5.29229e-88 2.28976e-87 9.79371e-87 4.15016e-86 1.74246e-85 7.24782e-85 2.98655e-84 1.21903e-83 4.92844e-83 1.97342e-82 7.82549e-82 3.0729e-81 1.1948e-80 4.59955e-80 1.75296e-79 6.61345e-79 2.46971e-78 9.12822e-78 3.33895e-77 1.20859e-76 4.32861e-76 1.53385e-75 5.37695e-75 1.86452e-74 6.39493e-74 2.16918e-73 7.27614e-73 2.41329e-72 7.91361e-72 2.56537e-71 8.22028e-71 2.60339e-70 8.1481e-70 2.51994e-69 7.69999e-69 2.32437e-68 6.9308e-68 2.04114e-67 5.93633e-67 1.70477e-66 4.8335e-66 1.35285e-65 3.73742e-65 1.019e-64 2.74152e-64 7.27731e-64 1.90568e-63 4.92231e-63 1.25391e-62 3.14976e-62 7.80083e-62 1.90456e-61 4.58322e-61 1.08694e-60 2.54001e-60 5.84778e-60 1.32619e-59 2.96221e-59 6.51551e-59 1.41104e-58 3.00827e-58 6.31271e-58 1.30366e-57 2.6491e-57 5.29598e-57 1.04146e-56 2.01426e-56 3.83092e-56 7.1637e-56 1.31691e-55 2.37954e-55 4.2256e-55 7.37367e-55 1.26422e-54 2.12935e-54 3.523e-54 5.72489e-54 9.13631e-54 1.43181e-53 2.20331e-53 3.32905e-53 4.93853e-53 7.19279e-53 1.02853e-52 1.44401e-52 1.99054e-52 2.69435e-52 3.58152e-52 4.67598e-52 5.99725e-52 7.55796e-52 9.36166e-52 1.1401e-51 1.36565e-51 1.60971e-51 1.86805e-51 2.1356e-51 2.40675e-51 2.67569e-51 2.93684e-51 3.1852e-51 3.41662e-51 3.62799e-51 3.8173e-51 3.98358e-51 4.12673e-51 4.24731e-51 4.34627e-51 4.4247e-51 4.48363e-51 4.52391e-51 4.54618e-51 4.5509e-51 4.53854e-51 4.50968e-51 4.46534e-51 4.40706e-51 4.33715e-51 4.25864e-51 4.17531e-51 4.09147e-51 4.01172e-51 3.94057e-51 3.8821e-51 3.8396e-51 3.81527e-51 3.81004e-51 3.82351e-51 3.85405e-51 3.89899e-51 3.95489e-51 4.01789e-51 4.08405e-51 4.1497e-51 4.2116e-51 4.26721e-51 4.31472e-51 4.35308e-51 4.38197e-51 4.40168e-51 4.41301e-51 4.41712e-51 4.41543e-51 4.40947e-51 4.40083e-51 4.39104e-51 4.38152e-51 4.37355e-51 4.36825e-51 4.36654e-51 4.36916e-51 4.37666e-51 4.38939e-51 4.4075e-51 4.43097e-51 4.45958e-51 4.49297e-51 4.53063e-51 4.57198e-51 4.61633e-51 4.66299e-51 4.71121e-51 4.76023e-51 4.80922e-51 4.85725e-51 4.90328e-51 4.94609e-51 4.98436e-51 5.01666e-51 5.04158e-51 5.05783e-51 5.06441e-51 5.06071e-51 5.04661e-51 5.02248e-51 4.98913e-51 4.94768e-51 4.89935e-51 4.84526e-51 4.78622e-51 4.72254e-51 4.65397e-51 4.57968e-51 4.49835e-51 4.40832e-51 4.30783e-51 4.19518e-51 4.06896e-51 3.9282e-51 3.77247e-51 3.60192e-51 3.41725e-51 3.21969e-51 3.01096e-51 2.79314e-51 2.5687e-51 2.34037e-51 2.1111e-51 1.88398e-51 1.66217e-51 1.44874e-51 1.24654e-51 1.0581e-51 8.8546e-52 7.30072e-52 5.92757e-52 4.7368e-52 3.72391e-52 2.87907e-52 2.18827e-52 1.63465e-52 1.19986e-52 8.65231e-53 6.12879e-53 4.26396e-53 2.91352e-53 1.95512e-53 1.28847e-53 8.33922e-54 5.30084e-54 3.30943e-54 2.02946e-54 1.22254e-54 7.23505e-55 4.2069e-55 2.40367e-55 1.34969e-55 7.44892e-56 4.04122e-56 2.15552e-56 1.13051e-56 5.83103e-57 2.9582e-57 1.47634e-57 7.24919e-58 3.50271e-58 1.6657e-58 7.79717e-59 3.59327e-59 1.63051e-59 7.28631e-60 3.20706e-60 1.39055e-60 5.94043e-61 2.5007e-61 1.03749e-61 4.2428e-62 1.71051e-62 6.79915e-63 2.66444e-63 1.02787e-63 3.85706e-64 1.27743e-64 0 
0 5.28322e-88 2.41901e-87 1.04665e-86 4.47694e-86 1.89724e-85 7.96603e-85 3.3137e-84 1.36553e-83 5.57413e-83 2.25373e-82 9.02497e-82 3.57908e-81 1.40554e-80 5.46548e-80 2.10421e-79 8.02023e-79 3.02612e-78 1.13018e-77 4.1777e-77 1.52831e-76 5.5326e-76 1.98177e-75 7.02333e-75 2.46238e-74 8.53978e-74 2.92938e-73 9.93802e-73 3.33406e-72 1.10599e-71 3.62732e-71 1.17607e-70 3.76918e-70 1.19392e-69 3.73744e-69 1.15609e-68 3.53326e-68 1.06679e-67 3.1816e-67 9.37187e-67 2.72625e-66 7.83088e-66 2.22078e-65 6.21719e-65 1.71799e-64 4.68517e-64 1.26082e-63 3.34766e-63 8.76865e-63 2.2655e-62 5.77267e-62 1.45046e-61 3.59327e-61 8.77533e-61 2.11234e-60 5.01098e-60 1.17132e-59 2.69749e-59 6.11932e-59 1.36723e-58 3.00817e-58 6.51663e-58 1.38973e-57 2.91716e-57 6.02615e-57 1.22491e-56 2.44951e-56 4.81839e-56 9.32188e-56 1.77344e-55 3.31722e-55 6.09976e-55 1.10248e-54 1.95831e-54 3.41813e-54 5.86186e-54 9.87567e-54 1.6343e-53 2.65632e-53 4.24008e-53 6.64617e-53 1.02292e-52 1.54581e-52 2.29349e-52 3.34082e-52 4.77774e-52 6.70831e-52 9.24794e-52 1.25184e-51 1.66409e-51 2.17262e-51 2.78649e-51 3.5115e-51 4.34925e-51 5.29621e-51 6.34334e-51 7.47599e-51 8.67452e-51 9.91528e-51 1.11721e-50 1.2418e-50 1.36272e-50 1.47763e-50 1.58463e-50 1.68229e-50 1.76967e-50 1.84636e-50 1.91233e-50 1.96784e-50 2.01335e-50 2.04938e-50 2.07643e-50 2.09488e-50 2.10503e-50 2.10711e-50 2.10133e-50 2.08795e-50 2.06744e-50 2.04051e-50 2.00821e-50 1.97195e-50 1.93347e-50 1.89475e-50 1.85793e-50 1.82507e-50 1.79808e-50 1.77846e-50 1.76724e-50 1.76483e-50 1.77107e-50 1.78518e-50 1.80594e-50 1.83176e-50 1.86086e-50 1.89141e-50 1.92171e-50 1.95028e-50 1.97593e-50 1.99785e-50 2.01554e-50 2.02885e-50 2.03793e-50 2.04314e-50 2.04502e-50 2.04422e-50 2.04145e-50 2.03745e-50 2.03292e-50 2.02852e-50 2.02484e-50 2.02238e-50 2.02158e-50 2.02278e-50 2.02623e-50 2.0321e-50 2.04044e-50 2.05126e-50 2.06445e-50 2.07984e-50 2.09721e-50 2.11627e-50 2.13672e-50 2.15824e-50 2.18048e-50 2.20309e-50 2.22569e-50 2.24786e-50 2.2691e-50 2.28887e-50 2.30654e-50 2.32146e-50 2.33297e-50 2.34048e-50 2.34353e-50 2.34184e-50 2.33534e-50 2.32421e-50 2.30883e-50 2.28971e-50 2.26742e-50 2.24248e-50 2.21526e-50 2.18591e-50 2.15432e-50 2.1201e-50 2.08264e-50 2.04118e-50 1.9949e-50 1.94301e-50 1.88486e-50 1.81999e-50 1.74819e-50 1.66953e-50 1.58432e-50 1.49313e-50 1.39671e-50 1.29605e-50 1.19227e-50 1.08661e-50 9.80456e-51 8.75233e-51 7.72405e-51 6.734e-51 5.79558e-51 4.92056e-51 4.11852e-51 3.39635e-51 2.75795e-51 2.20417e-51 1.733e-51 1.33992e-51 1.01845e-51 7.60799e-52 5.58427e-52 4.02672e-52 2.85212e-52 1.98413e-52 1.35559e-52 9.09557e-53 5.99335e-53 3.87841e-53 2.46489e-53 1.5386e-53 9.43334e-54 5.68141e-54 3.36154e-54 1.95415e-54 1.11626e-54 6.26638e-55 3.45752e-55 1.8753e-55 9.99987e-56 5.24323e-56 2.70364e-56 1.37123e-56 6.84142e-57 3.35836e-57 1.62225e-57 7.71236e-58 3.60914e-58 1.66277e-58 7.543e-59 3.3698e-59 1.4828e-59 6.42749e-60 2.74506e-60 1.15525e-60 4.79161e-61 1.95899e-61 7.89571e-62 3.13767e-62 1.22927e-62 4.741e-63 1.77864e-63 5.8896e-64 0 
0 2.28147e-87 1.04466e-86 4.52022e-86 1.93359e-85 8.19464e-85 3.44095e-84 1.43146e-83 5.8993e-83 2.40829e-82 9.738e-82 3.89987e-81 1.54673e-80 6.07475e-80 2.36242e-79 9.09624e-79 3.46743e-78 1.30845e-77 4.88734e-77 1.80682e-76 6.61065e-76 2.39344e-75 8.57448e-75 3.03921e-74 1.06571e-73 3.69656e-73 1.26823e-72 4.30323e-72 1.44392e-71 4.7907e-71 1.5715e-70 5.09621e-70 1.6336e-69 5.17564e-69 1.62051e-68 5.01375e-68 1.53265e-67 4.62855e-67 1.38075e-66 4.06817e-66 1.18371e-65 3.40095e-65 9.64732e-65 2.70153e-64 7.46711e-64 2.03694e-63 5.48311e-63 1.45626e-62 3.81556e-62 9.86097e-62 2.51341e-61 6.31721e-61 1.56547e-60 3.82433e-60 9.2086e-60 2.18522e-59 5.10965e-59 1.17711e-58 2.67119e-58 5.97019e-58 1.31401e-57 2.8475e-57 6.07464e-57 1.27555e-56 2.63587e-56 5.35962e-56 1.07215e-55 2.10972e-55 4.08292e-55 7.77008e-55 1.45386e-54 2.67424e-54 4.83494e-54 8.59081e-54 1.49993e-53 2.573e-53 4.33601e-53 7.17742e-53 1.16688e-52 1.86304e-52 2.92089e-52 4.49647e-52 6.79622e-52 1.00851e-51 1.46927e-51 2.10148e-51 2.95095e-51 4.06844e-51 5.50755e-51 7.32147e-51 9.55894e-51 1.22595e-50 1.54487e-50 1.91329e-50 2.32965e-50 2.78991e-50 3.28759e-50 3.814e-50 4.35869e-50 4.91014e-50 5.45648e-50 5.98633e-50 6.48952e-50 6.95766e-50 7.38453e-50 7.76617e-50 8.10074e-50 8.38822e-50 8.62989e-50 8.8278e-50 8.9843e-50 9.10158e-50 9.18142e-50 9.22516e-50 9.23375e-50 9.20809e-50 9.14937e-50 9.05956e-50 8.94179e-50 8.80061e-50 8.64215e-50 8.474e-50 8.30485e-50 8.14395e-50 8.00042e-50 7.8825e-50 7.79682e-50 7.74782e-50 7.73737e-50 7.76466e-50 7.8264e-50 7.91716e-50 8.03e-50 8.15713e-50 8.29059e-50 8.42293e-50 8.54768e-50 8.65968e-50 8.7553e-50 8.83246e-50 8.8905e-50 8.93004e-50 8.95267e-50 8.96078e-50 8.9572e-50 8.94506e-50 8.92754e-50 8.90771e-50 8.88844e-50 8.8723e-50 8.86154e-50 8.85802e-50 8.86322e-50 8.87823e-50 8.90377e-50 8.94015e-50 8.9873e-50 9.04481e-50 9.11195e-50 9.1877e-50 9.27085e-50 9.36008e-50 9.45396e-50 9.55101e-50 9.6497e-50 9.74835e-50 9.84511e-50 9.93787e-50 1.00242e-49 1.01014e-49 1.01666e-49 1.02169e-49 1.02498e-49 1.02632e-49 1.02559e-49 1.02275e-49 1.0179e-49 1.01119e-49 1.00284e-49 9.93117e-50 9.82238e-50 9.70368e-50 9.57574e-50 9.43807e-50 9.28898e-50 9.12582e-50 8.94524e-50 8.74364e-50 8.51757e-50 8.26414e-50 7.98136e-50 7.66828e-50 7.3251e-50 6.95317e-50 6.55487e-50 6.13355e-50 5.69337e-50 5.23921e-50 4.77656e-50 4.31137e-50 3.84994e-50 3.3987e-50 2.96395e-50 2.55161e-50 2.16691e-50 1.81411e-50 1.4963e-50 1.21524e-50 9.71358e-51 7.63792e-51 5.90588e-51 4.48916e-51 3.35349e-51 2.46142e-51 1.77481e-51 1.257e-51 8.7437e-52 5.97315e-52 4.00723e-52 2.64006e-52 1.70813e-52 1.08537e-52 6.77351e-53 4.15198e-53 2.50001e-53 1.47882e-53 8.59449e-54 4.90806e-54 2.75446e-54 1.51935e-54 8.23825e-55 4.39164e-55 2.30196e-55 1.18662e-55 6.01638e-56 3.00078e-56 1.47256e-56 7.11092e-57 3.37952e-57 1.58099e-57 7.28148e-58 3.30211e-58 1.47473e-58 6.48711e-59 2.81109e-59 1.20018e-59 5.04938e-60 2.09368e-60 8.55716e-61 3.44793e-61 1.36976e-61 5.36488e-62 2.06852e-62 7.75821e-63 2.56843e-63 0 
0 9.73921e-87 4.45967e-86 1.92981e-85 8.2555e-85 3.49895e-84 1.46932e-83 6.11294e-83 2.51944e-82 1.0286e-81 4.15956e-81 1.66597e-80 6.60805e-80 2.59556e-79 1.0095e-78 3.8874e-78 1.48203e-77 5.59317e-77 2.08943e-76 7.7255e-76 2.82694e-75 1.02366e-74 3.6678e-74 1.30024e-73 4.56007e-73 1.58199e-72 5.42849e-72 1.84227e-71 6.18273e-71 2.05172e-70 6.73161e-70 2.18342e-69 7.00046e-69 2.21839e-68 6.9474e-68 2.14996e-67 6.57374e-67 1.98572e-66 5.92507e-66 1.74617e-65 5.08213e-65 1.46054e-64 4.14418e-64 1.16081e-63 3.20942e-63 8.75745e-63 2.35806e-62 6.26467e-62 1.64191e-61 4.24468e-61 1.08225e-60 2.721e-60 6.74511e-60 1.64833e-59 3.97034e-59 9.42489e-59 2.20456e-58 5.0804e-58 1.15329e-57 2.57854e-57 5.67723e-57 1.23072e-56 2.62645e-56 5.51697e-56 1.14047e-55 2.31978e-55 4.64219e-55 9.13785e-55 1.76905e-54 3.36778e-54 6.30361e-54 1.15987e-53 2.0977e-53 3.72842e-53 6.5117e-53 1.11736e-52 1.88352e-52 3.11865e-52 5.07153e-52 8.09919e-52 1.27009e-51 1.95562e-51 2.95641e-51 4.38788e-51 6.39356e-51 9.14585e-51 1.28442e-50 1.77097e-50 2.39755e-50 3.1873e-50 4.16138e-50 5.33696e-50 6.72496e-50 8.32814e-50 1.01394e-49 1.21411e-49 1.43046e-49 1.65921e-49 1.89578e-49 2.13516e-49 2.37216e-49 2.60184e-49 2.81979e-49 3.02239e-49 3.20695e-49 3.37179e-49 3.51614e-49 3.64003e-49 3.74406e-49 3.82916e-49 3.89636e-49 3.94665e-49 3.9808e-49 3.99941e-49 4.00289e-49 3.99162e-49 3.96612e-49 3.92722e-49 3.87627e-49 3.81522e-49 3.74672e-49 3.67404e-49 3.60093e-49 3.53139e-49 3.46936e-49 3.41841e-49 3.38139e-49 3.36023e-49 3.35573e-49 3.36756e-49 3.39427e-49 3.43352e-49 3.4823e-49 3.53725e-49 3.59492e-49 3.65209e-49 3.70597e-49 3.75433e-49 3.7956e-49 3.82889e-49 3.85391e-49 3.87094e-49 3.88067e-49 3.88413e-49 3.88254e-49 3.87727e-49 3.86967e-49 3.86108e-49 3.85273e-49 3.84575e-49 3.84108e-49 3.83954e-49 3.84177e-49 3.84823e-49 3.85923e-49 3.87492e-49 3.89525e-49 3.92006e-49 3.94902e-49 3.9817e-49 4.01758e-49 4.05609e-49 4.0966e-49 4.13849e-49 4.18109e-49 4.22369e-49 4.26547e-49 4.30554e-49 4.34284e-49 4.37621e-49 4.4044e-49 4.42617e-49 4.4404e-49 4.44621e-49 4.44307e-49 4.43086e-49 4.40991e-49 4.38093e-49 4.34492e-49 4.30294e-49 4.256e-49 4.2048e-49 4.14964e-49 4.0903e-49 4.02606e-49 3.95577e-49 3.87798e-49 3.79113e-49 3.69373e-49 3.58451e-49 3.4626e-49 3.32757e-49 3.17949e-49 3.01892e-49 2.84686e-49 2.66475e-49 2.47436e-49 2.27778e-49 2.07738e-49 1.87572e-49 1.67555e-49 1.47965e-49 1.29078e-49 1.11153e-49 9.44194e-50 7.90653e-50 6.52271e-50 5.29841e-50 4.23566e-50 3.3309e-50 2.57574e-50 1.95794e-50 1.46263e-50 1.07353e-50 7.7403e-51 5.48162e-51 3.81263e-51 2.60422e-51 1.74684e-51 1.15067e-51 7.44346e-52 4.72872e-52 2.95041e-52 1.80809e-52 1.08842e-52 6.43656e-53 3.73972e-53 2.13503e-53 1.19785e-53 6.60528e-54 3.5804e-54 1.90803e-54 9.99806e-55 5.15213e-55 2.61136e-55 1.30202e-55 6.38725e-56 3.08332e-56 1.46488e-56 6.85061e-57 3.15407e-57 1.42987e-57 6.38371e-58 2.80716e-58 1.21603e-58 5.19011e-59 2.18286e-59 9.04813e-60 3.69692e-60 1.48913e-60 5.91406e-61 2.31563e-61 8.92563e-62 3.34673e-62 1.10772e-62 0 
0 4.11887e-86 1.88616e-85 8.16237e-85 3.492e-84 1.48013e-83 6.21598e-83 2.58629e-82 1.06602e-81 4.3526e-81 1.7603e-80 7.05098e-80 2.79705e-79 1.09876e-78 4.27392e-78 1.646e-77 6.27596e-77 2.36885e-76 8.85044e-76 3.27283e-75 1.19778e-74 4.3379e-74 1.55452e-73 5.5117e-73 1.93333e-72 6.70829e-72 2.30231e-71 7.8148e-71 2.62318e-70 8.70666e-70 2.8572e-69 9.26939e-69 2.97258e-68 9.42196e-68 2.95138e-67 9.13557e-67 2.79398e-66 8.44181e-66 2.51954e-65 7.42727e-65 2.16224e-64 6.21573e-64 1.76416e-63 4.94295e-63 1.36703e-62 3.7313e-62 1.00501e-61 2.67085e-61 7.00225e-61 1.81082e-60 4.61847e-60 1.16157e-59 2.88041e-59 7.04139e-59 1.69666e-58 4.02898e-58 9.42748e-58 2.17335e-57 4.93545e-57 1.10388e-56 2.43133e-56 5.27261e-56 1.12564e-55 2.36532e-55 4.89141e-55 9.9531e-55 1.99249e-54 3.92351e-54 7.59851e-54 1.44706e-53 2.70948e-53 4.98722e-53 9.02274e-53 1.60422e-52 2.80268e-52 4.81071e-52 8.11176e-52 1.3435e-51 2.18539e-51 3.49094e-51 5.47571e-51 8.43311e-51 1.27514e-50 1.89289e-50 2.75857e-50 3.94662e-50 5.54318e-50 7.64366e-50 1.03487e-49 1.3758e-49 1.79628e-49 2.30367e-49 2.90266e-49 3.59434e-49 4.3756e-49 5.23869e-49 6.17123e-49 7.15673e-49 8.17542e-49 9.20554e-49 1.02248e-48 1.12118e-48 1.21476e-48 1.30167e-48 1.38076e-48 1.45132e-48 1.51304e-48 1.56596e-48 1.61034e-48 1.64659e-48 1.67518e-48 1.69654e-48 1.71101e-48 1.71885e-48 1.72023e-48 1.71532e-48 1.70434e-48 1.68764e-48 1.66578e-48 1.63962e-48 1.61026e-48 1.57912e-48 1.5478e-48 1.518e-48 1.49143e-48 1.4696e-48 1.45375e-48 1.44469e-48 1.44277e-48 1.44785e-48 1.45931e-48 1.47613e-48 1.49704e-48 1.52058e-48 1.54528e-48 1.56977e-48 1.59283e-48 1.61353e-48 1.63119e-48 1.64542e-48 1.65611e-48 1.66338e-48 1.66753e-48 1.66899e-48 1.66829e-48 1.66602e-48 1.66275e-48 1.65906e-48 1.65548e-48 1.65248e-48 1.65047e-48 1.64981e-48 1.65075e-48 1.65351e-48 1.65821e-48 1.66491e-48 1.6736e-48 1.68421e-48 1.69659e-48 1.71057e-48 1.72592e-48 1.74239e-48 1.75972e-48 1.77764e-48 1.79587e-48 1.8141e-48 1.83199e-48 1.84915e-48 1.86512e-48 1.87942e-48 1.8915e-48 1.90084e-48 1.90695e-48 1.90945e-48 1.90811e-48 1.90289e-48 1.89393e-48 1.88153e-48 1.86612e-48 1.84817e-48 1.82809e-48 1.8062e-48 1.78263e-48 1.75728e-48 1.72984e-48 1.69983e-48 1.66662e-48 1.62954e-48 1.58795e-48 1.54129e-48 1.4892e-48 1.43148e-48 1.36815e-48 1.29945e-48 1.22578e-48 1.14776e-48 1.06613e-48 9.8179e-49 8.95739e-49 8.09084e-49 7.22998e-49 6.38686e-49 5.57341e-49 4.80086e-49 4.07922e-49 3.4167e-49 2.81929e-49 2.29051e-49 1.83134e-49 1.44031e-49 1.11385e-49 8.46723e-50 6.32529e-50 4.64247e-50 3.34711e-50 2.37021e-50 1.64838e-50 1.12578e-50 7.55024e-51 4.97256e-51 3.21602e-51 2.04265e-51 1.27418e-51 7.80657e-52 4.6981e-52 2.77753e-52 1.61331e-52 9.20773e-53 5.16436e-53 2.84687e-53 1.54265e-53 8.21819e-54 4.30487e-54 2.2176e-54 1.1236e-54 5.60033e-55 2.74636e-55 1.32528e-55 6.29416e-56 2.94248e-56 1.35426e-56 6.13729e-57 2.73905e-57 1.20405e-57 5.21403e-58 2.22462e-58 9.35318e-59 3.87567e-59 1.58301e-59 6.37435e-60 2.53075e-60 9.90594e-61 3.81709e-61 1.43083e-61 4.73477e-62 0 
0 1.72583e-85 7.90355e-85 3.42048e-84 1.46344e-83 6.20343e-83 2.60541e-82 1.08412e-81 4.46897e-81 1.82486e-80 7.3809e-80 2.95676e-79 1.17304e-78 4.60856e-78 1.79283e-77 6.90551e-77 2.6333e-76 9.94066e-76 3.71452e-75 1.3738e-74 5.02853e-74 1.82143e-73 6.5283e-73 2.31506e-72 8.12188e-72 2.81865e-71 9.67552e-71 3.28482e-70 1.10283e-69 3.66118e-69 1.20172e-68 3.89948e-68 1.2508e-67 3.96547e-67 1.24246e-66 3.84679e-66 1.17678e-65 3.55647e-65 1.06175e-64 3.13073e-64 9.11679e-64 2.62152e-63 7.44263e-63 2.08595e-62 5.77071e-62 1.5756e-61 4.24515e-61 1.12853e-60 2.95968e-60 7.65646e-60 1.95344e-59 4.91471e-59 1.21916e-58 2.98139e-58 7.18641e-58 1.70715e-57 3.99608e-57 9.21574e-57 2.09359e-56 4.68438e-56 1.03215e-55 2.23918e-55 4.78222e-55 1.00529e-54 2.0797e-54 4.23343e-54 8.47804e-54 1.67009e-53 3.23562e-53 6.16425e-53 1.15462e-52 2.12602e-52 3.8477e-52 6.84348e-52 1.196e-51 2.05357e-51 3.46379e-51 5.73857e-51 9.33724e-51 1.49193e-50 2.34076e-50 3.60583e-50 5.45339e-50 8.09691e-50 1.18019e-49 1.68871e-49 2.37214e-49 3.27132e-49 4.42931e-49 5.88874e-49 7.68855e-49 9.86011e-49 1.24232e-48 1.53823e-48 1.87237e-48 2.24138e-48 2.63991e-48 3.06088e-48 3.49579e-48 3.9353e-48 4.36985e-48 4.79033e-48 5.18864e-48 5.5582e-48 5.89416e-48 6.19355e-48 6.45513e-48 6.6791e-48 6.86668e-48 7.01972e-48 7.14024e-48 7.23011e-48 7.29083e-48 7.32351e-48 7.32891e-48 7.3077e-48 7.26081e-48 7.1897e-48 7.09678e-48 6.98558e-48 6.86087e-48 6.72859e-48 6.59553e-48 6.46899e-48 6.35612e-48 6.26343e-48 6.19611e-48 6.15768e-48 6.14958e-48 6.1712e-48 6.2199e-48 6.2914e-48 6.38022e-48 6.48021e-48 6.58511e-48 6.68905e-48 6.78694e-48 6.87474e-48 6.94962e-48 7.00996e-48 7.05526e-48 7.08601e-48 7.10351e-48 7.10961e-48 7.10657e-48 7.09685e-48 7.08292e-48 7.06722e-48 7.05197e-48 7.0392e-48 7.03066e-48 7.02779e-48 7.03175e-48 7.04341e-48 7.06331e-48 7.09171e-48 7.12854e-48 7.1735e-48 7.226e-48 7.28526e-48 7.35033e-48 7.42017e-48 7.49368e-48 7.5697e-48 7.64703e-48 7.72438e-48 7.8003e-48 7.87312e-48 7.94096e-48 8.00168e-48 8.05301e-48 8.0927e-48 8.11868e-48 8.12936e-48 8.12374e-48 8.10164e-48 8.06364e-48 8.01106e-48 7.9457e-48 7.86955e-48 7.78443e-48 7.69167e-48 7.59181e-48 7.48446e-48 7.36833e-48 7.24132e-48 7.10079e-48 6.94388e-48 6.76783e-48 6.57033e-48 6.34972e-48 6.10517e-48 5.83673e-48 5.54532e-48 5.2327e-48 4.90136e-48 4.55446e-48 4.19573e-48 3.82945e-48 3.46029e-48 3.09326e-48 2.73352e-48 2.38617e-48 2.05605e-48 1.74749e-48 1.46403e-48 1.20831e-48 9.81858e-49 7.85141e-49 6.17564e-49 4.77624e-49 3.63093e-49 2.71244e-49 1.99075e-49 1.43521e-49 1.01623e-49 7.06666e-50 4.82559e-50 3.23585e-50 2.13073e-50 1.37777e-50 8.7489e-51 5.45612e-51 3.34195e-51 2.01068e-51 1.18837e-51 6.90052e-52 3.93713e-52 2.20752e-52 1.2165e-52 6.58966e-53 3.50932e-53 1.83761e-53 9.46286e-54 4.79286e-54 2.38803e-54 1.17064e-54 5.64699e-55 2.68094e-55 1.25286e-55 5.76415e-56 2.61126e-56 1.16498e-56 5.11922e-57 2.21604e-57 9.45165e-58 3.97244e-58 1.64549e-58 6.71869e-59 2.70451e-59 1.07339e-59 4.20012e-60 1.61793e-60 6.06298e-61 2.00582e-61 0 
0 7.16392e-85 3.28096e-84 1.42003e-83 6.07597e-83 2.57577e-82 1.0819e-81 4.50223e-81 1.85608e-80 7.57983e-80 3.06608e-79 1.22839e-78 4.87396e-78 1.91507e-77 7.45095e-77 2.87028e-76 1.09468e-75 4.13297e-75 1.54459e-74 5.71347e-74 2.09163e-73 7.57751e-73 2.71636e-72 9.6344e-72 3.38063e-71 1.17345e-70 4.02885e-70 1.36806e-69 4.594e-69 1.52544e-68 5.0081e-68 1.62546e-67 5.21503e-67 1.65375e-66 5.18279e-66 1.60506e-65 4.91134e-65 1.48471e-64 4.43366e-64 1.30771e-63 3.80918e-63 1.09565e-62 3.11154e-62 8.72344e-62 2.41407e-61 6.59336e-61 1.77704e-60 4.72568e-60 1.23978e-59 3.20833e-59 8.18852e-59 2.06092e-58 5.11424e-58 1.25113e-57 3.01688e-57 7.16943e-57 1.67886e-56 3.87327e-56 8.8026e-56 1.97035e-55 4.34314e-55 9.42599e-55 2.01391e-54 4.23521e-54 8.76517e-54 1.78495e-53 3.57604e-53 7.04726e-53 1.36587e-52 2.60315e-52 4.8778e-52 8.98496e-52 1.62671e-51 2.89429e-51 5.06e-51 8.6911e-51 1.46642e-50 2.43023e-50 3.9554e-50 6.32185e-50 9.92123e-50 1.52869e-49 2.31248e-49 3.43413e-49 5.00639e-49 7.16466e-49 1.00655e-48 1.38823e-48 1.87976e-48 2.49923e-48 3.26311e-48 4.18465e-48 5.27214e-48 6.52737e-48 7.94432e-48 9.50855e-48 1.11973e-47 1.29801e-47 1.48209e-47 1.668e-47 1.85167e-47 2.02924e-47 2.1973e-47 2.35306e-47 2.49451e-47 2.62041e-47 2.73027e-47 2.8242e-47 2.90277e-47 2.96678e-47 3.01711e-47 3.05456e-47 3.0798e-47 3.09329e-47 3.09534e-47 3.08626e-47 3.0664e-47 3.03639e-47 2.99722e-47 2.95037e-47 2.89785e-47 2.84215e-47 2.78612e-47 2.73284e-47 2.68532e-47 2.6463e-47 2.61797e-47 2.6018e-47 2.59841e-47 2.60753e-47 2.62805e-47 2.65817e-47 2.69558e-47 2.73768e-47 2.78183e-47 2.82557e-47 2.86675e-47 2.90368e-47 2.93515e-47 2.9605e-47 2.97952e-47 2.99241e-47 2.99973e-47 3.00226e-47 3.00095e-47 2.99682e-47 2.99094e-47 2.98431e-47 2.97787e-47 2.97249e-47 2.96887e-47 2.96765e-47 2.9693e-47 2.97419e-47 2.98254e-47 2.99446e-47 3.00994e-47 3.02883e-47 3.05089e-47 3.07579e-47 3.10314e-47 3.1325e-47 3.1634e-47 3.19537e-47 3.22789e-47 3.26042e-47 3.29235e-47 3.323e-47 3.35155e-47 3.37712e-47 3.39874e-47 3.41546e-47 3.42642e-47 3.43094e-47 3.4286e-47 3.41932e-47 3.40335e-47 3.38124e-47 3.35376e-47 3.32175e-47 3.28598e-47 3.24702e-47 3.20509e-47 3.16003e-47 3.11131e-47 3.05804e-47 2.99911e-47 2.9333e-47 2.85946e-47 2.77659e-47 2.684e-47 2.58131e-47 2.46853e-47 2.34604e-47 2.21454e-47 2.07507e-47 1.92894e-47 1.7777e-47 1.62315e-47 1.46726e-47 1.31213e-47 1.15996e-47 1.01291e-47 8.73061e-48 7.42251e-48 6.22014e-48 5.1348e-48 4.17327e-48 3.33765e-48 2.62557e-48 2.03077e-48 1.54387e-48 1.15333e-48 8.46448e-49 6.10199e-49 4.32028e-49 3.00387e-49 2.05094e-49 1.37505e-49 9.05259e-50 5.85232e-50 3.71537e-50 2.31644e-50 1.41847e-50 8.53174e-51 5.04101e-51 2.92624e-51 1.66904e-51 9.35499e-52 5.15348e-52 2.79061e-52 1.4856e-52 7.77633e-53 4.00297e-53 2.02672e-53 1.00942e-53 4.94645e-54 2.38518e-54 1.13195e-54 5.28783e-55 2.43189e-55 1.10127e-55 4.91132e-56 2.15736e-56 9.33546e-57 3.9802e-57 1.67224e-57 6.92434e-58 2.82627e-58 1.13727e-58 4.51216e-59 1.76498e-59 6.79665e-60 2.54616e-60 8.42139e-61 0 
0 2.94582e-84 1.34922e-83 5.83997e-83 2.49899e-82 1.05948e-81 4.4505e-81 1.85221e-80 7.6366e-80 3.11894e-79 1.26177e-78 5.05568e-78 2.00621e-77 7.88375e-77 3.06771e-76 1.18191e-75 4.50826e-75 1.70234e-74 6.36301e-74 2.35406e-73 8.61932e-73 3.12312e-72 1.11976e-71 3.9723e-71 1.39411e-70 4.84002e-70 1.66208e-69 5.64502e-69 1.89603e-68 6.29718e-68 2.06787e-67 6.71316e-67 2.15434e-66 6.83336e-66 2.1421e-65 6.63563e-65 2.031e-64 6.14145e-64 1.83449e-63 5.41241e-63 1.57704e-62 4.53749e-62 1.28901e-61 3.615e-61 1.00072e-60 2.73411e-60 7.3715e-60 1.96098e-59 5.14646e-59 1.3323e-58 3.40163e-58 8.56455e-58 2.12613e-57 5.2033e-57 1.25518e-56 2.98403e-56 6.99046e-56 1.61342e-55 3.66822e-55 8.21422e-55 1.81137e-54 3.93288e-54 8.40631e-54 1.76857e-53 3.66175e-53 7.45994e-53 1.49518e-52 2.94774e-52 5.7155e-52 1.08974e-51 2.04277e-51 3.76428e-51 6.81779e-51 1.2135e-50 2.12229e-50 3.64656e-50 6.15481e-50 1.02034e-49 1.66121e-49 2.65585e-49 4.16913e-49 6.42554e-49 9.72229e-49 1.44411e-48 2.10565e-48 3.01388e-48 4.2347e-48 5.84106e-48 7.90979e-48 1.05169e-47 1.37314e-47 1.76089e-47 2.21838e-47 2.74629e-47 3.34204e-47 3.99946e-47 4.70888e-47 5.45744e-47 6.22987e-47 7.00941e-47 7.77898e-47 8.52234e-47 9.22517e-47 9.87587e-47 1.04661e-46 1.09907e-46 1.14479e-46 1.18383e-46 1.21643e-46 1.24296e-46 1.26378e-46 1.27924e-46 1.28962e-46 1.29513e-46 1.29589e-46 1.29203e-46 1.28369e-46 1.27113e-46 1.25477e-46 1.2352e-46 1.21328e-46 1.19003e-46 1.16664e-46 1.14441e-46 1.12458e-46 1.10829e-46 1.09647e-46 1.08973e-46 1.08832e-46 1.09214e-46 1.10071e-46 1.11329e-46 1.1289e-46 1.14647e-46 1.16489e-46 1.18314e-46 1.20031e-46 1.2157e-46 1.22881e-46 1.23937e-46 1.24728e-46 1.25264e-46 1.25567e-46 1.25671e-46 1.25614e-46 1.25441e-46 1.25195e-46 1.24917e-46 1.24648e-46 1.24422e-46 1.24271e-46 1.24219e-46 1.24288e-46 1.24491e-46 1.24838e-46 1.25334e-46 1.25979e-46 1.26765e-46 1.27684e-46 1.28722e-46 1.29861e-46 1.31084e-46 1.32372e-46 1.33704e-46 1.35059e-46 1.36416e-46 1.37747e-46 1.39026e-46 1.40217e-46 1.41284e-46 1.42187e-46 1.42885e-46 1.43344e-46 1.43533e-46 1.43436e-46 1.4305e-46 1.42385e-46 1.41463e-46 1.40318e-46 1.38985e-46 1.37495e-46 1.35873e-46 1.34128e-46 1.32254e-46 1.30228e-46 1.28014e-46 1.25565e-46 1.2283e-46 1.1976e-46 1.16315e-46 1.12463e-46 1.0819e-46 1.03495e-46 9.83915e-47 9.29097e-47 8.70912e-47 8.099e-47 7.46706e-47 6.82069e-47 6.16812e-47 5.51819e-47 4.88009e-47 4.26298e-47 3.67562e-47 3.12585e-47 2.6202e-47 2.1635e-47 1.75871e-47 1.40678e-47 1.10677e-47 8.56111e-48 6.50874e-48 4.86233e-48 3.56843e-48 2.57229e-48 1.82104e-48 1.266e-48 8.64254e-49 5.79333e-49 3.81325e-49 2.46463e-49 1.5643e-49 9.75042e-50 5.96896e-50 3.5891e-50 2.11996e-50 1.23021e-50 7.01433e-51 3.93017e-51 2.16428e-51 1.17152e-51 6.23436e-52 3.26211e-52 1.67857e-52 8.49533e-53 4.22952e-53 2.07176e-53 9.9861e-54 4.73728e-54 2.21212e-54 1.01696e-54 4.60345e-55 2.05219e-55 9.01099e-56 3.89779e-56 1.6612e-56 6.9767e-57 2.88781e-57 1.17827e-57 4.73955e-58 1.87975e-58 7.35028e-59 2.82949e-59 1.05965e-59 3.50385e-60 0 
0 1.19986e-83 5.49588e-83 2.37902e-82 1.01809e-81 4.31669e-81 1.81346e-80 7.54799e-80 3.11233e-79 1.27128e-78 5.14351e-78 2.06116e-77 8.18016e-77 3.21495e-76 1.25116e-75 4.82109e-75 1.83921e-74 6.94602e-74 2.59669e-73 9.60829e-73 3.51864e-72 1.27517e-71 4.57281e-71 1.62249e-70 5.69536e-70 1.9777e-69 6.7929e-69 2.30761e-68 7.75246e-68 2.57537e-67 8.459e-67 2.74682e-66 8.8171e-66 2.79743e-65 8.77163e-65 2.71795e-64 8.32129e-64 2.51697e-63 7.52058e-63 2.21952e-62 6.46911e-62 1.8619e-61 5.29102e-61 1.48435e-60 4.11045e-60 1.12342e-59 3.02996e-59 8.06328e-59 2.11693e-58 5.4823e-58 1.40028e-57 3.52697e-57 8.75908e-57 2.14447e-56 5.17516e-56 1.23084e-55 2.88459e-55 6.6605e-55 1.51496e-54 3.39388e-54 7.48729e-54 1.62635e-53 3.47775e-53 7.31987e-53 1.51621e-52 3.09025e-52 6.19639e-52 1.22214e-51 2.37068e-51 4.52191e-51 8.4801e-51 1.5633e-50 2.83254e-50 5.04362e-50 8.82418e-50 1.51674e-49 2.56093e-49 4.24694e-49 6.91665e-49 1.10614e-48 1.7369e-48 2.67765e-48 4.05246e-48 6.02066e-48 8.78042e-48 1.25698e-47 1.76637e-47 2.43668e-47 3.29992e-47 4.38776e-47 5.72897e-47 7.34653e-47 9.25464e-47 1.14559e-46 1.39392e-46 1.66785e-46 1.9633e-46 2.27488e-46 2.59619e-46 2.92021e-46 3.23983e-46 3.54827e-46 3.8396e-46 4.109e-46 4.35305e-46 4.56971e-46 4.75825e-46 4.91898e-46 5.05302e-46 5.16187e-46 5.24717e-46 5.31038e-46 5.3527e-46 5.37494e-46 5.37767e-46 5.36138e-46 5.32667e-46 5.27458e-46 5.20679e-46 5.12581e-46 5.03509e-46 4.93889e-46 4.84215e-46 4.75016e-46 4.66812e-46 4.60077e-46 4.55188e-46 4.52401e-46 4.51822e-46 4.53404e-46 4.56954e-46 4.62159e-46 4.6862e-46 4.75887e-46 4.83505e-46 4.91047e-46 4.98144e-46 5.04502e-46 5.09917e-46 5.14273e-46 5.17535e-46 5.19742e-46 5.20987e-46 5.21408e-46 5.21168e-46 5.20445e-46 5.19421e-46 5.18269e-46 5.17153e-46 5.16218e-46 5.1559e-46 5.15373e-46 5.15652e-46 5.16487e-46 5.1792e-46 5.19967e-46 5.22626e-46 5.25873e-46 5.29667e-46 5.3395e-46 5.38655e-46 5.43706e-46 5.49025e-46 5.54527e-46 5.60127e-46 5.65731e-46 5.71235e-46 5.76519e-46 5.81446e-46 5.8586e-46 5.89596e-46 5.92489e-46 5.94389e-46 5.95177e-46 5.94782e-46 5.93188e-46 5.90441e-46 5.86635e-46 5.81906e-46 5.76398e-46 5.70249e-46 5.63555e-46 5.56359e-46 5.48635e-46 5.40288e-46 5.31168e-46 5.21081e-46 5.09817e-46 4.97174e-46 4.82979e-46 4.67105e-46 4.49484e-46 4.30111e-46 4.09044e-46 3.86397e-46 3.62342e-46 3.37096e-46 3.10924e-46 2.84131e-46 2.57056e-46 2.30066e-46 2.03542e-46 1.7787e-46 1.53416e-46 1.3051e-46 1.09429e-46 9.03771e-47 7.34822e-47 5.87872e-47 4.6256e-47 3.57828e-47 2.72056e-47 2.03239e-47 1.49151e-47 1.07508e-47 7.61022e-48 5.29e-48 3.61071e-48 2.4199e-48 1.59247e-48 1.02903e-48 6.52953e-49 4.06879e-49 2.49007e-49 1.4968e-49 8.83818e-50 5.127e-50 2.92226e-50 1.63676e-50 9.00996e-51 4.87523e-51 2.59338e-51 1.35644e-51 6.97697e-52 3.52966e-52 1.75657e-52 8.60075e-53 4.14395e-53 1.96503e-53 9.17211e-54 4.21489e-54 1.90717e-54 8.49857e-55 3.73015e-55 1.61287e-55 6.87117e-56 2.88462e-56 1.19354e-56 4.86796e-57 1.95739e-57 7.76031e-58 3.03335e-58 1.16728e-58 4.36998e-59 1.44461e-59 0 