# vtk DataFile Version 3.0
Gray-Scott Simulation Output
ASCII
DATASET STRUCTURED_POINTS
DIMENSIONS 256 256 1
SPACING 1.0 1.0 1.0
ORIGIN 0 0 0
POINT_DATA 65536
SCALARS u double
LOOKUP_TABLE default
0 0 0 0 0 0 0 0 0 0 0 0 0 0 0 0 0 0 0 0 0 0 0 0 0 0 0 0 0 0 0 0 0 0 0 0 0 0 0 0 0 0 0 0 0 0 0 0 0 0 0 0 0 0 0 0 0 0 0 0 0 0 0 0 0 0 0 0 0 0 0 0 0 0 0 0 0 0 0 0 0 0 0 0 0 0 0 0 0 0 0 0 0 0 0 0 0 0 0 0 0 0 0 0 0 0 0 0 0 0 0 0 0 0 0 0 0 0 0 0 0 0 0 0 0 0 0 0 0 0 0 0 0 0 0 0 0 0 0 0 0 0 0 0 0 0 0 0 0 0 0 0 0 0 0 0 0 0 0 0 0 0 0 0 0 0 0 0 0 0 0 0 0 0 0 0 0 0 0 0 0 0 0 0 0 0 0 0 0 0 0 0 0 0 0 0 0 0 0 0 0 0 0 0 0 0 0 0 0 0 0 0 0 0 0 0 0 0 0 0 0 0 0 0 0 0 0 0 0 0 0 0 0 0 0 0 0 0 0 0 0 0 0 0 0 0 0 0 0 0 0 0 0 0 0 0 
0 7.82386e-99 4.3494e-98 2.31969e-97 1.22409e-96 6.39717e-96 3.31078e-95 1.6967e-94 8.60945e-94 4.32517e-93 2.15104e-92 1.05895e-91 5.15989e-91 2.48831e-90 1.18748e-89 5.60747e-89 2.61986e-88 1.21093e-87 5.53667e-87 2.5039e-86 1.1199e-85 4.95327e-85 2.16623e-84 9.36633e-84 4.00348e-83 1.69145e-82 7.06292e-82 2.91447e-81 1.18831e-80 4.78682e-80 1.90481e-79 7.48669e-79 2.90605e-78 1.11387e-77 4.21525e-77 1.57475e-76 5.8068e-76 2.11318e-75 7.58833e-75 2.68845e-74 9.39586e-74 3.23879e-73 1.10096e-72 3.69008e-72 1.21927e-71 3.97094e-71 1.2745e-70 4.03058e-70 1.25573e-69 3.85344e-69 1.16452e-68 3.46501e-68 1.01495e-67 2.92604e-67 8.30093e-67 2.31684e-66 6.36065e-66 1.71732e-65 4.55887e-65 1.18966e-64 3.05111e-64 7.68893e-64 1.90349e-63 4.62821e-63 1.10499e-62 2.58991e-62 5.95788e-62 1.34487e-61 2.97817e-61 6.46841e-61 1.3776e-60 2.87622e-60 5.88571e-60 1.18018e-59 2.31834e-59 4.46053e-59 8.40387e-59 1.55012e-58 2.7987e-58 4.945e-58 8.54901e-58 1.44588e-57 2.39191e-57 3.86989e-57 6.12266e-57 9.47177e-57 1.43266e-56 2.11869e-56 3.0634e-56 4.33087e-56 5.98722e-56 8.09508e-56 1.07068e-55 1.38568e-55 1.75547e-55 2.17796e-55 2.64769e-55 3.15596e-55 3.69125e-55 4.24007e-55 4.78806e-55 5.32122e-55 5.82706e-55 6.29551e-55 6.71955e-55 7.09531e-55 7.42184e-55 7.70056e-55 7.9344e-55 8.12698e-55 8.28175e-55 8.40132e-55 8.48707e-55 8.53903e-55 8.5561e-55 8.53652e-55 8.47863e-55 8.38173e-55 8.24693e-55 8.0779e-55 7.88124e-55 7.66651e-55 7.44578e-55 7.2327e-55 7.04126e-55 6.88436e-55 6.77242e-55 6.71225e-55 6.70638e-55 6.75289e-55 6.84581e-55 6.97601e-55 7.13229e-55 7.30273e-55 7.4758e-55 7.64139e-55 7.79139e-55 7.92008e-55 8.02407e-55 8.10214e-55 8.15487e-55 8.18428e-55 8.19337e-55 8.18582e-55 8.16563e-55 8.13689e-55 8.10352e-55 8.06919e-55 8.03713e-55 8.01011e-55 7.99047e-55 7.98009e-55 7.98048e-55 7.99277e-55 8.01773e-55 8.05575e-55 8.10673e-55 8.17011e-55 8.24477e-55 8.32918e-55 8.42149e-55 8.51975e-55 8.62212e-55 8.72702e-55 8.83323e-55 8.93972e-55 9.04548e-55 9.14911e-55 9.24854e-55 9.34079e-55 9.42195e-55 9.48749e-55 9.53274e-55 9.55364e-55 9.54745e-55 9.51333e-55 9.45263e-55 9.36878e-55 9.26673e-55 9.15212e-55 9.03027e-55 8.90514e-55 8.77857e-55 8.64991e-55 8.51603e-55 8.3718e-55 8.21092e-55 8.02685e-55 7.8138e-55 7.56748e-55 7.28561e-55 6.96808e-55 6.61675e-55 6.23511e-55 5.8278e-55 5.40018e-55 4.95795e-55 4.50701e-55 4.05338e-55 3.6032e-55 3.16272e-55 2.73822e-55 2.3358e-55 1.96107e-55 1.6188e-55 1.31259e-55 1.04453e-55 8.15166e-56 6.23477e-56 4.67099e-56 3.42624e-56 2.45976e-56 1.7279e-56 1.18744e-56 7.98195e-57 5.24788e-57 3.37462e-57 2.12246e-57 1.30573e-57 7.85784e-58 4.62634e-58 2.66512e-58 1.50248e-58 8.29064e-59 4.47851e-59 2.36882e-59 1.22707e-59 6.22649e-60 3.09559e-60 1.50824e-60 7.20307e-61 3.37277e-61 1.54874e-61 6.97577e-62 3.08267e-62 1.33686e-62 5.69067e-63 2.37827e-63 9.76065e-64 3.9347e-64 1.55832e-64 6.06469e-65 2.31986e-65 8.72389e-66 3.22585e-66 1.17315e-66 4.1969e-67 1.47726e-67 5.11708e-68 1.74466e-68 5.85603e-69 1.93533e-69 6.29456e-70 2.00155e-70 5.77149e-71 0 
0 4.34287e-98 2.41412e-97 1.28746e-96 6.79346e-96 3.5501e-95 1.83721e-94 9.41481e-94 4.77706e-93 2.39976e-92 1.19343e-91 5.87494e-91 2.86255e-90 1.38039e-89 6.58738e-89 3.11056e-88 1.45325e-87 6.71697e-87 3.0711e-86 1.38885e-85 6.21177e-85 2.74741e-84 1.20153e-83 5.19518e-83 2.22061e-82 9.38204e-82 3.91766e-81 1.61662e-80 6.59159e-80 2.65532e-79 1.05666e-78 4.15324e-78 1.61219e-77 6.17968e-77 2.33871e-76 8.73749e-76 3.22208e-75 1.17263e-74 4.21115e-74 1.49206e-73 5.215e-73 1.79778e-72 6.1117e-72 2.04863e-71 6.76969e-71 2.20498e-70 7.07779e-70 2.23858e-69 6.9751e-69 2.1407e-68 6.47001e-68 1.9254e-67 5.64051e-67 1.62635e-66 4.61447e-66 1.28812e-65 3.53693e-65 9.55091e-65 2.53582e-64 6.61845e-64 1.69771e-63 4.27903e-63 1.05951e-62 2.57659e-62 6.15272e-62 1.44235e-61 3.31863e-61 7.49253e-61 1.6595e-60 3.60501e-60 7.67913e-60 1.60359e-59 3.28208e-59 6.58234e-59 1.29326e-58 2.4887e-58 4.68967e-58 8.65172e-58 1.5623e-57 2.76086e-57 4.77378e-57 8.07498e-57 1.33603e-56 2.16185e-56 3.42074e-56 5.29248e-56 8.00601e-56 1.18407e-55 1.71217e-55 2.42073e-55 3.3467e-55 4.52511e-55 5.98516e-55 7.74609e-55 9.81317e-55 1.21746e-54 1.47998e-54 1.76399e-54 2.06305e-54 2.3696e-54 2.67561e-54 2.97324e-54 3.25553e-54 3.51685e-54 3.7533e-54 3.96272e-54 4.14462e-54 4.2998e-54 4.42992e-54 4.53703e-54 4.62307e-54 4.68951e-54 4.73713e-54 4.76596e-54 4.77539e-54 4.76443e-54 4.73217e-54 4.67821e-54 4.60315e-54 4.50904e-54 4.39955e-54 4.28e-54 4.15711e-54 4.03849e-54 3.93192e-54 3.84459e-54 3.7823e-54 3.74884e-54 3.74562e-54 3.77157e-54 3.82337e-54 3.89591e-54 3.98297e-54 4.0779e-54 4.17428e-54 4.26648e-54 4.34998e-54 4.42161e-54 4.47948e-54 4.52292e-54 4.55225e-54 4.56859e-54 4.57364e-54 4.56942e-54 4.55818e-54 4.54218e-54 4.52361e-54 4.50451e-54 4.48667e-54 4.47164e-54 4.46071e-54 4.45493e-54 4.45513e-54 4.46195e-54 4.47582e-54 4.49695e-54 4.52528e-54 4.56051e-54 4.60201e-54 4.64894e-54 4.70026e-54 4.75489e-54 4.81181e-54 4.87015e-54 4.92921e-54 4.98844e-54 5.04727e-54 5.10493e-54 5.16026e-54 5.2116e-54 5.25679e-54 5.29328e-54 5.31849e-54 5.33014e-54 5.32672e-54 5.30775e-54 5.27398e-54 5.22732e-54 5.17053e-54 5.10675e-54 5.03895e-54 4.96933e-54 4.89892e-54 4.82735e-54 4.75289e-54 4.67268e-54 4.58321e-54 4.48083e-54 4.36232e-54 4.22527e-54 4.06842e-54 3.89168e-54 3.69607e-54 3.48353e-54 3.25662e-54 3.0183e-54 2.77173e-54 2.5202e-54 2.26704e-54 2.01569e-54 1.76963e-54 1.5324e-54 1.30741e-54 1.09782e-54 9.06335e-55 7.34966e-55 5.84918e-55 4.56505e-55 3.49169e-55 2.61596e-55 1.91884e-55 1.37754e-55 9.67642e-56 6.64939e-56 4.46942e-56 2.93826e-56 1.88925e-56 1.18811e-56 7.30837e-57 4.39759e-57 2.58875e-57 1.4911e-57 8.40493e-58 4.63708e-58 2.50449e-58 1.32448e-58 6.85978e-59 3.48023e-59 1.72994e-59 8.42711e-60 4.02391e-60 1.88382e-60 8.64874e-61 3.89482e-61 1.72085e-61 7.46145e-62 3.17559e-62 1.32692e-62 5.44486e-63 2.19455e-63 8.68993e-64 3.3814e-64 1.29324e-64 4.86248e-65 1.79773e-65 6.53683e-66 2.33818e-66 8.2289e-67 2.85001e-67 9.71575e-68 3.26071e-68 1.07748e-68 3.50401e-69 1.11408e-69 3.21216e-70 0 
0 2.31245e-97 1.28537e-96 6.85448e-96 3.61664e-95 1.88986e-94 9.77966e-94 5.01134e-93 2.54262e-92 1.27723e-91 6.35151e-91 3.12657e-90 1.52336e-89 7.34578e-89 3.50537e-88 1.6552e-87 7.73289e-87 3.5741e-86 1.63411e-85 7.38989e-85 3.30517e-84 1.46184e-83 6.39312e-83 2.76427e-82 1.18156e-81 4.99214e-81 2.08461e-80 8.60233e-80 3.50759e-79 1.41302e-78 5.62319e-78 2.21031e-77 8.58029e-77 3.28907e-76 1.24482e-75 4.65098e-75 1.71523e-74 6.24278e-74 2.24207e-73 7.94458e-73 2.777e-72 9.57407e-72 3.25511e-71 1.09122e-70 3.60631e-70 1.17476e-69 3.77131e-69 1.19295e-68 3.71753e-68 1.14108e-67 3.44928e-67 1.02661e-66 3.00794e-66 8.67427e-66 2.46156e-65 6.87252e-65 1.88739e-64 5.09747e-64 1.35365e-63 3.53365e-63 9.06591e-63 2.28547e-62 5.66004e-62 1.37672e-61 3.28817e-61 7.70987e-61 1.77428e-60 4.00666e-60 8.87609e-60 1.92859e-59 4.109e-59 8.58238e-59 1.75693e-58 3.5243e-58 6.92577e-58 1.33303e-57 2.51243e-57 4.63594e-57 8.373e-57 1.47992e-56 2.55936e-56 4.32994e-56 7.16512e-56 1.15957e-55 1.83506e-55 2.83951e-55 4.29584e-55 6.35408e-55 9.18879e-55 1.29923e-54 1.79632e-54 2.42891e-54 3.21269e-54 4.15794e-54 5.26746e-54 6.53483e-54 7.94359e-54 9.46744e-54 1.10717e-53 1.27157e-53 1.43563e-53 1.59516e-53 1.7464e-53 1.88634e-53 2.01291e-53 2.12495e-53 2.2222e-53 2.30513e-53 2.37462e-53 2.4318e-53 2.4777e-53 2.51312e-53 2.5385e-53 2.55385e-53 2.55884e-53 2.55295e-53 2.53569e-53 2.50684e-53 2.46673e-53 2.41644e-53 2.35792e-53 2.29404e-53 2.22837e-53 2.16498e-53 2.10803e-53 2.06137e-53 2.0281e-53 2.01024e-53 2.00855e-53 2.02246e-53 2.05017e-53 2.08897e-53 2.13553e-53 2.18628e-53 2.23779e-53 2.28707e-53 2.33169e-53 2.36996e-53 2.40087e-53 2.42406e-53 2.43972e-53 2.44844e-53 2.45112e-53 2.44886e-53 2.44285e-53 2.4343e-53 2.42438e-53 2.41418e-53 2.40465e-53 2.39663e-53 2.39079e-53 2.3877e-53 2.3878e-53 2.39144e-53 2.39883e-53 2.4101e-53 2.42521e-53 2.444e-53 2.46615e-53 2.49118e-53 2.51857e-53 2.54772e-53 2.5781e-53 2.60923e-53 2.64076e-53 2.67238e-53 2.70379e-53 2.73458e-53 2.76413e-53 2.79156e-53 2.81571e-53 2.83521e-53 2.84869e-53 2.85493e-53 2.85312e-53 2.84299e-53 2.82496e-53 2.80004e-53 2.7697e-53 2.73564e-53 2.69943e-53 2.66225e-53 2.62465e-53 2.58645e-53 2.5467e-53 2.50389e-53 2.45614e-53 2.40149e-53 2.33821e-53 2.26503e-53 2.18125e-53 2.08683e-53 1.9823e-53 1.86868e-53 1.74734e-53 1.61984e-53 1.48787e-53 1.35318e-53 1.21754e-53 1.0828e-53 9.50837e-54 8.23537e-54 7.02752e-54 5.90192e-54 4.87315e-54 3.95218e-54 3.1456e-54 2.45516e-54 1.87797e-54 1.40699e-54 1.03204e-54 7.40888e-55 5.20407e-55 3.57589e-55 2.40336e-55 1.57986e-55 1.01571e-55 6.38687e-56 3.9282e-56 2.36334e-56 1.39103e-56 8.01093e-57 4.51478e-57 2.49041e-57 1.34483e-57 7.1107e-58 3.68209e-58 1.8677e-58 9.28208e-59 4.52071e-59 2.15819e-59 1.01017e-59 4.63679e-60 2.08768e-60 9.22218e-61 3.99784e-61 1.70114e-61 7.10684e-62 2.91563e-62 1.17492e-62 4.65154e-63 1.80966e-63 6.91989e-64 2.60136e-64 9.6159e-65 3.4959e-65 1.25025e-65 4.39938e-66 1.52345e-66 5.19269e-67 1.74246e-67 5.75702e-68 1.87195e-68 5.951e-69 1.71563e-69 0 
0 1.21824e-96 6.77115e-96 3.61063e-95 1.90497e-94 9.95379e-94 5.15063e-93 2.63918e-92 1.33899e-91 6.72581e-91 3.34454e-90 1.64631e-89 8.02104e-89 3.86771e-88 1.84561e-87 8.71454e-87 4.07126e-86 1.88168e-85 8.60311e-85 3.89054e-84 1.74006e-83 7.69613e-83 3.36579e-82 1.45532e-81 6.2207e-81 2.62832e-80 1.09755e-79 4.52929e-79 1.84687e-78 7.44035e-78 2.96104e-77 1.16395e-76 4.51862e-76 1.73222e-75 6.55636e-75 2.44979e-74 9.0352e-74 3.28872e-73 1.18123e-72 4.18595e-72 1.46332e-71 5.04549e-71 1.71561e-70 5.7519e-70 1.90114e-69 6.19371e-69 1.98861e-68 6.29123e-68 1.96078e-67 6.01942e-67 1.81983e-66 5.41721e-66 1.58748e-65 4.5787e-65 1.29955e-64 3.62891e-64 9.96778e-64 2.69261e-63 7.15166e-63 1.86727e-62 4.79162e-62 1.20819e-61 2.99273e-61 7.28087e-61 1.73934e-60 4.07916e-60 9.38946e-60 2.12077e-59 4.69925e-59 1.02127e-58 2.17638e-58 4.54675e-58 9.30982e-58 1.86791e-57 3.67149e-57 7.06816e-57 1.33245e-56 2.45913e-56 4.44232e-56 7.85325e-56 1.35838e-55 2.29851e-55 3.80417e-55 6.15743e-55 9.74574e-55 1.50822e-54 2.28203e-54 3.37576e-54 4.88221e-54 6.90363e-54 9.54549e-54 1.29076e-53 1.70731e-53 2.20966e-53 2.79926e-53 3.47268e-53 4.22111e-53 5.03055e-53 5.88251e-53 6.75537e-53 7.62617e-53 8.47257e-53 9.27469e-53 1.00166e-52 1.06872e-52 1.12805e-52 1.17953e-52 1.22339e-52 1.26012e-52 1.29032e-52 1.31456e-52 1.33325e-52 1.34664e-52 1.35472e-52 1.35734e-52 1.35421e-52 1.34507e-52 1.3298e-52 1.30858e-52 1.28197e-52 1.25102e-52 1.21722e-52 1.18248e-52 1.14895e-52 1.11883e-52 1.09415e-52 1.07656e-52 1.06713e-52 1.06625e-52 1.07362e-52 1.0883e-52 1.10885e-52 1.13349e-52 1.16035e-52 1.18761e-52 1.21367e-52 1.23728e-52 1.25751e-52 1.27386e-52 1.28612e-52 1.29439e-52 1.29899e-52 1.30041e-52 1.29921e-52 1.29602e-52 1.2915e-52 1.28626e-52 1.28086e-52 1.27583e-52 1.27158e-52 1.2685e-52 1.26686e-52 1.26691e-52 1.26883e-52 1.27273e-52 1.27868e-52 1.28666e-52 1.29658e-52 1.30827e-52 1.3215e-52 1.33596e-52 1.35136e-52 1.36741e-52 1.38386e-52 1.40052e-52 1.41723e-52 1.43383e-52 1.4501e-52 1.46573e-52 1.48023e-52 1.49301e-52 1.50333e-52 1.51046e-52 1.51377e-52 1.51282e-52 1.50747e-52 1.49794e-52 1.48476e-52 1.46872e-52 1.45071e-52 1.43157e-52 1.41191e-52 1.39204e-52 1.37185e-52 1.35086e-52 1.32824e-52 1.30301e-52 1.27413e-52 1.2407e-52 1.20202e-52 1.15772e-52 1.10779e-52 1.0525e-52 9.92381e-53 9.28149e-53 8.6063e-53 7.9071e-53 7.19309e-53 6.47371e-53 5.75869e-53 5.058e-53 4.38175e-53 3.73981e-53 3.14133e-53 2.59413e-53 2.10411e-53 1.67484e-53 1.30731e-53 1.00001e-53 7.49229e-54 5.49563e-54 3.94514e-54 2.77097e-54 1.9039e-54 1.27951e-54 8.41008e-55 5.40635e-55 3.39912e-55 2.09031e-55 1.25741e-55 7.39978e-56 4.26081e-56 2.40087e-56 1.32411e-56 7.14886e-57 3.77917e-57 1.95655e-57 9.92235e-58 4.93018e-58 2.40067e-58 1.14584e-58 5.36208e-59 2.46074e-59 1.10769e-59 4.89212e-60 2.1203e-60 9.02028e-61 3.76761e-61 1.54537e-61 6.22615e-62 2.46446e-62 9.58597e-63 3.66485e-63 1.37745e-63 5.09078e-64 1.85044e-64 6.61663e-65 2.32786e-65 8.05973e-66 2.74672e-66 9.21546e-67 3.04429e-67 9.89737e-68 3.14597e-68 9.06858e-69 0 
0 6.35582e-96 3.53244e-95 1.88352e-94 9.93693e-94 5.19193e-93 2.68645e-92 1.37647e-91 6.98322e-91 3.50758e-90 1.74415e-89 8.58507e-89 4.18264e-88 2.01679e-87 9.62359e-87 4.54397e-86 2.12282e-85 9.81129e-85 4.48572e-84 2.02855e-83 9.07278e-83 4.01283e-82 1.75497e-81 7.58834e-81 3.24366e-80 1.37052e-79 5.72328e-79 2.36191e-78 9.63133e-78 3.88026e-77 1.5443e-76 6.07079e-76 2.3569e-75 9.03576e-75 3.42023e-74 1.27806e-73 4.71407e-73 1.71602e-72 6.16408e-72 2.18458e-71 7.63762e-71 2.63371e-70 8.95634e-70 3.00314e-69 9.9273e-69 3.23463e-68 1.03868e-67 3.28647e-67 1.02444e-66 3.14542e-66 9.51092e-66 2.83165e-65 8.29936e-65 2.39417e-64 6.79649e-64 1.89822e-63 5.21498e-63 1.409e-62 3.74311e-62 9.77512e-62 2.50892e-61 6.32749e-61 1.56768e-60 3.81479e-60 9.11524e-60 2.13822e-59 4.9229e-59 1.11218e-58 2.46495e-58 5.35825e-58 1.14213e-57 2.38661e-57 4.8879e-57 9.80924e-57 1.9285e-56 3.71348e-56 7.00195e-56 1.29253e-55 2.33539e-55 4.12939e-55 7.14398e-55 1.20905e-54 2.0014e-54 3.24e-54 5.12891e-54 7.93844e-54 1.20128e-53 1.77723e-53 2.57057e-53 3.63517e-53 5.02657e-53 6.79731e-53 8.99116e-53 1.16368e-52 1.47416e-52 1.82874e-52 2.22277e-52 2.64883e-52 3.09717e-52 3.55639e-52 4.01438e-52 4.45937e-52 4.8809e-52 5.27059e-52 5.62265e-52 5.93396e-52 6.20387e-52 6.43371e-52 6.62609e-52 6.78416e-52 6.91092e-52 7.00865e-52 7.07857e-52 7.12077e-52 7.13434e-52 7.11783e-52 7.06986e-52 6.98981e-52 6.87857e-52 6.73911e-52 6.57687e-52 6.39973e-52 6.21764e-52 6.04188e-52 5.88401e-52 5.75469e-52 5.66253e-52 5.61315e-52 5.60863e-52 5.64737e-52 5.72442e-52 5.83219e-52 5.96144e-52 6.10227e-52 6.24519e-52 6.38183e-52 6.50553e-52 6.61157e-52 6.69718e-52 6.76139e-52 6.8047e-52 6.82878e-52 6.83615e-52 6.82984e-52 6.81314e-52 6.78943e-52 6.76196e-52 6.7337e-52 6.70732e-52 6.68509e-52 6.66892e-52 6.66035e-52 6.6606e-52 6.67061e-52 6.69101e-52 6.72211e-52 6.76385e-52 6.81577e-52 6.87696e-52 6.94617e-52 7.02187e-52 7.10247e-52 7.18647e-52 7.27257e-52 7.35977e-52 7.44726e-52 7.53419e-52 7.61943e-52 7.7013e-52 7.77731e-52 7.84426e-52 7.89838e-52 7.93581e-52 7.95319e-52 7.94823e-52 7.92023e-52 7.8703e-52 7.80127e-52 7.71725e-52 7.62289e-52 7.5226e-52 7.41966e-52 7.31562e-52 7.20992e-52 7.1e-52 6.98162e-52 6.84956e-52 6.69841e-52 6.52334e-52 6.32078e-52 6.08879e-52 5.82718e-52 5.5374e-52 5.22221e-52 4.88533e-52 4.53106e-52 4.16401e-52 3.78898e-52 3.41092e-52 3.03494e-52 2.66629e-52 2.31031e-52 1.97223e-52 1.6569e-52 1.36848e-52 1.11011e-52 8.83718e-53 6.89839e-53 5.27704e-53 3.95373e-53 2.90006e-53 2.0818e-53 1.46213e-53 1.00455e-53 6.75042e-54 4.43652e-54 2.85164e-54 1.79266e-54 1.10225e-54 6.62945e-55 3.90072e-55 2.24565e-55 1.26513e-55 6.976e-56 3.76559e-56 1.99023e-56 1.03016e-56 5.22318e-57 2.59471e-57 1.26317e-57 6.02775e-58 2.82013e-58 1.29391e-58 5.82319e-59 2.57123e-59 1.11415e-59 4.73883e-60 1.97889e-60 8.11513e-61 3.26881e-61 1.2936e-61 5.03065e-62 1.9229e-62 7.22583e-63 2.67001e-63 9.70334e-64 3.46898e-64 1.22024e-64 4.22407e-65 1.4393e-65 4.82816e-66 1.5947e-66 5.18379e-67 1.64748e-67 4.74844e-68 0 
0 3.2837e-95 1.82492e-94 9.73004e-94 5.13302e-93 2.68181e-92 1.38758e-91 7.10932e-91 3.60661e-90 1.81148e-89 9.00733e-89 4.43347e-88 2.15993e-87 1.04146e-86 4.96946e-86 2.34639e-85 1.09616e-84 5.06622e-84 2.31627e-83 1.04747e-82 4.6849e-82 2.07212e-81 9.06232e-81 3.91855e-80 1.67504e-79 7.07762e-79 2.9557e-78 1.21982e-77 4.97436e-77 2.00416e-76 7.97677e-76 3.13592e-75 1.21756e-74 4.66812e-74 1.76711e-73 6.60384e-73 2.436e-72 8.86835e-72 3.18589e-71 1.12921e-70 3.94831e-70 1.36167e-69 4.63112e-69 1.55305e-68 5.1345e-68 1.67322e-67 5.37369e-67 1.70053e-66 5.30163e-66 1.62806e-65 4.92365e-65 1.46615e-64 4.29795e-64 1.24009e-63 3.52099e-63 9.83585e-63 2.70274e-62 7.30386e-62 1.94073e-61 5.06931e-61 1.3014e-60 3.28285e-60 8.13536e-60 1.98011e-59 4.73248e-59 1.11039e-58 2.55711e-58 5.77839e-58 1.28099e-57 2.78527e-57 5.93834e-57 1.24119e-56 2.54263e-56 5.10387e-56 1.00366e-55 1.93308e-55 3.64574e-55 6.73141e-55 1.21652e-54 2.15147e-54 3.72287e-54 6.30183e-54 1.04336e-53 1.68934e-53 2.67465e-53 4.14038e-53 6.26625e-53 9.27161e-53 1.34117e-52 1.89677e-52 2.62295e-52 3.54712e-52 4.69209e-52 6.07276e-52 7.69297e-52 9.54307e-52 1.15987e-51 1.38209e-51 1.61589e-51 1.85528e-51 2.09395e-51 2.32576e-51 2.54525e-51 2.74807e-51 2.93119e-51 3.09301e-51 3.23323e-51 3.35255e-51 3.45236e-51 3.53431e-51 3.59999e-51 3.6506e-51 3.68679e-51 3.7086e-51 3.71557e-51 3.70695e-51 3.682e-51 3.64042e-51 3.58264e-51 3.51021e-51 3.42596e-51 3.33396e-51 3.23939e-51 3.14812e-51 3.06614e-51 2.99899e-51 2.95115e-51 2.92554e-51 2.92324e-51 2.94341e-51 2.98347e-51 3.03949e-51 3.10666e-51 3.17983e-51 3.25407e-51 3.32503e-51 3.38927e-51 3.44431e-51 3.48875e-51 3.52206e-51 3.54453e-51 3.55701e-51 3.56081e-51 3.55752e-51 3.54884e-51 3.53653e-51 3.52226e-51 3.50759e-51 3.4939e-51 3.48237e-51 3.47397e-51 3.46952e-51 3.46964e-51 3.47482e-51 3.48538e-51 3.5015e-51 3.52314e-51 3.55005e-51 3.58178e-51 3.61766e-51 3.65691e-51 3.69871e-51 3.74227e-51 3.78692e-51 3.83215e-51 3.87754e-51 3.92264e-51 3.96688e-51 4.00938e-51 4.04884e-51 4.08361e-51 4.11173e-51 4.13118e-51 4.14023e-51 4.13767e-51 4.12315e-51 4.09724e-51 4.06141e-51 4.0178e-51 3.96882e-51 3.91677e-51 3.86335e-51 3.80937e-51 3.75455e-51 3.69754e-51 3.63615e-51 3.56767e-51 3.48928e-51 3.39848e-51 3.29338e-51 3.17299e-51 3.0372e-51 2.88673e-51 2.72302e-51 2.54796e-51 2.36379e-51 2.17287e-51 1.9777e-51 1.78085e-51 1.58495e-51 1.39277e-51 1.20709e-51 1.03066e-51 8.66028e-52 7.15384e-52 5.80393e-52 4.62072e-52 3.60722e-52 2.75952e-52 2.06756e-52 1.51654e-52 1.08861e-52 7.64533e-53 5.25226e-53 3.52913e-53 2.31916e-53 1.49049e-53 9.36852e-54 5.7595e-54 3.46347e-54 2.03752e-54 1.17278e-54 6.60581e-55 3.64172e-55 1.96536e-55 1.03852e-55 5.37431e-56 2.7243e-56 1.35303e-56 6.58537e-57 3.14176e-57 1.46955e-57 6.74088e-58 3.03299e-58 1.3389e-58 5.8003e-59 2.46648e-59 1.02974e-59 4.22185e-60 1.7002e-60 6.72688e-61 2.61543e-61 9.99499e-62 3.75512e-62 1.38727e-62 5.04059e-63 1.80168e-63 6.3363e-64 2.19302e-64 7.47109e-65 2.50576e-65 8.27493e-66 2.68943e-66 8.54605e-67 2.46287e-67 0 
0 1.67986e-94 9.33536e-94 4.97713e-93 2.62553e-92 1.37168e-91 7.0968e-91 3.63592e-90 1.84446e-89 9.26385e-89 4.60617e-88 2.26713e-87 1.10449e-86 5.32545e-86 2.54108e-85 1.19979e-84 5.60498e-84 2.5905e-83 1.18438e-82 5.35607e-82 2.39557e-81 1.05957e-80 4.63407e-80 2.00382e-79 8.56586e-79 3.61949e-78 1.5116e-77 6.23866e-77 2.54422e-76 1.02512e-75 4.08031e-75 1.6042e-74 6.22893e-74 2.38836e-73 9.04183e-73 3.37929e-72 1.24665e-71 4.53894e-71 1.63075e-70 5.7807e-70 2.02147e-69 6.97235e-69 2.37164e-68 7.95439e-68 2.63015e-67 8.57231e-67 2.75349e-66 8.71494e-66 2.71745e-65 8.34635e-65 2.52459e-64 7.51902e-64 2.20458e-63 6.36212e-63 1.80676e-62 5.04822e-62 1.38747e-61 3.75029e-61 9.96722e-61 2.60409e-60 6.68678e-60 1.68718e-59 4.18207e-59 1.01815e-58 2.43398e-58 5.71231e-58 1.31581e-57 2.97415e-57 6.59499e-57 1.43432e-56 3.05882e-56 6.39495e-56 1.31037e-55 2.63099e-55 5.17506e-55 9.96971e-55 1.88072e-54 3.47333e-54 6.27852e-54 1.11063e-53 1.92223e-53 3.25448e-53 5.38929e-53 8.72758e-53 1.38202e-52 2.13971e-52 3.23878e-52 4.79272e-52 6.93356e-52 9.80674e-52 1.35622e-51 1.83416e-51 2.42627e-51 3.14023e-51 3.97799e-51 4.9345e-51 5.99708e-51 7.14559e-51 8.35355e-51 9.59009e-51 1.08225e-50 1.20189e-50 1.31512e-50 1.4197e-50 1.51406e-50 1.5974e-50 1.66956e-50 1.73092e-50 1.78221e-50 1.8243e-50 1.85801e-50 1.88397e-50 1.90252e-50 1.91369e-50 1.91723e-50 1.91277e-50 1.89992e-50 1.87851e-50 1.84878e-50 1.81152e-50 1.76817e-50 1.72083e-50 1.67218e-50 1.62521e-50 1.58303e-50 1.54849e-50 1.52389e-50 1.51073e-50 1.50957e-50 1.51997e-50 1.54061e-50 1.56946e-50 1.60404e-50 1.64171e-50 1.67991e-50 1.71643e-50 1.74947e-50 1.77778e-50 1.80063e-50 1.81775e-50 1.8293e-50 1.8357e-50 1.83765e-50 1.83595e-50 1.83148e-50 1.82514e-50 1.8178e-50 1.81026e-50 1.80322e-50 1.79729e-50 1.79297e-50 1.79068e-50 1.79073e-50 1.79339e-50 1.79881e-50 1.80709e-50 1.8182e-50 1.83202e-50 1.84831e-50 1.86674e-50 1.88691e-50 1.90838e-50 1.93076e-50 1.95371e-50 1.97695e-50 2.00027e-50 2.02346e-50 2.04621e-50 2.06806e-50 2.08836e-50 2.10625e-50 2.12073e-50 2.13075e-50 2.13541e-50 2.13411e-50 2.12664e-50 2.11332e-50 2.0949e-50 2.07247e-50 2.04728e-50 2.02052e-50 1.99305e-50 1.96531e-50 1.93714e-50 1.90785e-50 1.87631e-50 1.84114e-50 1.80086e-50 1.7542e-50 1.70019e-50 1.6383e-50 1.56846e-50 1.49106e-50 1.40682e-50 1.3167e-50 1.22185e-50 1.12347e-50 1.02284e-50 9.21277e-51 8.20154e-51 7.20889e-51 6.24929e-51 5.33699e-51 4.48531e-51 3.70567e-51 3.00681e-51 2.39406e-51 1.86908e-51 1.42991e-51 1.07137e-51 7.85831e-52 5.64069e-52 3.96125e-52 2.72112e-52 1.82821e-52 1.20127e-52 7.71933e-53 4.8513e-53 2.98196e-53 1.79288e-53 1.05453e-53 6.06861e-54 3.41751e-54 1.88364e-54 1.01633e-54 5.36922e-55 2.7779e-55 1.40781e-55 6.99025e-56 3.40141e-56 1.62235e-56 7.58663e-57 3.47915e-57 1.56502e-57 6.90702e-58 2.99148e-58 1.27177e-58 5.30827e-59 2.17583e-59 8.76028e-60 3.46523e-60 1.34698e-60 5.14641e-61 1.93308e-61 7.1399e-62 2.59372e-62 9.26892e-63 3.25912e-63 1.12778e-63 3.84133e-64 1.28812e-64 4.25308e-65 1.38205e-65 4.39096e-66 1.26525e-66 0 
0 8.50871e-94 4.72825e-93 2.52073e-92 1.32967e-91 6.9464e-91 3.5938e-90 1.84115e-89 9.33967e-89 4.69072e-88 2.33226e-87 1.1479e-86 5.59219e-86 2.69631e-85 1.28655e-84 6.0745e-84 2.83778e-83 1.31156e-82 5.9965e-82 2.71181e-81 1.21291e-80 5.36485e-80 2.34639e-79 1.01464e-78 4.33747e-78 1.83286e-77 7.65491e-77 3.15947e-76 1.28855e-75 5.19213e-75 2.06678e-74 8.12625e-74 3.15557e-73 1.21004e-72 4.58136e-72 1.7124e-71 6.31783e-71 2.3005e-70 8.26615e-70 2.93054e-69 1.02491e-68 3.53554e-68 1.20278e-67 4.03464e-67 1.33427e-66 4.34938e-66 1.39728e-65 4.42321e-65 1.37946e-64 4.23764e-64 1.28203e-63 3.81903e-63 1.11997e-62 3.23273e-62 9.18251e-62 2.56621e-61 7.05462e-61 1.90728e-60 5.07021e-60 1.32499e-59 3.40313e-59 8.58876e-59 2.12947e-58 5.18561e-58 1.23999e-57 2.91091e-57 6.70697e-57 1.51639e-56 3.3634e-56 7.31688e-56 1.56082e-55 3.26401e-55 6.68995e-55 1.34358e-54 2.64347e-54 5.09393e-54 9.61179e-54 1.77555e-53 3.21032e-53 5.68019e-53 9.83316e-53 1.66518e-52 2.75804e-52 4.46729e-52 7.07525e-52 1.0956e-51 1.6586e-51 2.45469e-51 3.55155e-51 5.02372e-51 6.94802e-51 9.39702e-51 1.2431e-50 1.60891e-50 2.03811e-50 2.52809e-50 3.0723e-50 3.6604e-50 4.27878e-50 4.91158e-50 5.54202e-50 6.15381e-50 6.73253e-50 7.2667e-50 7.74842e-50 8.17356e-50 8.54142e-50 8.854e-50 9.11509e-50 9.32918e-50 9.50054e-50 9.63242e-50 9.72659e-50 9.7832e-50 9.80105e-50 9.77814e-50 9.71256e-50 9.60342e-50 9.45187e-50 9.26193e-50 9.04096e-50 8.79968e-50 8.55166e-50 8.31227e-50 8.09728e-50 7.92124e-50 7.79589e-50 7.7289e-50 7.7231e-50 7.77626e-50 7.88163e-50 8.02882e-50 8.20519e-50 8.39726e-50 8.59205e-50 8.77818e-50 8.94657e-50 9.09082e-50 9.2072e-50 9.29439e-50 9.35313e-50 9.38571e-50 9.39557e-50 9.38684e-50 9.36404e-50 9.33174e-50 9.29434e-50 9.25591e-50 9.22004e-50 9.18983e-50 9.16783e-50 9.15613e-50 9.15639e-50 9.16987e-50 9.19744e-50 9.23951e-50 9.29603e-50 9.36635e-50 9.44926e-50 9.54305e-50 9.64568e-50 9.75496e-50 9.86887e-50 9.98566e-50 1.0104e-49 1.02227e-49 1.03408e-49 1.04567e-49 1.0568e-49 1.06715e-49 1.07627e-49 1.08365e-49 1.08876e-49 1.09114e-49 1.09049e-49 1.08669e-49 1.0799e-49 1.07052e-49 1.05909e-49 1.04626e-49 1.03262e-49 1.01864e-49 1.00451e-49 9.90169e-50 9.75264e-50 9.59217e-50 9.41316e-50 9.2082e-50 8.97069e-50 8.69571e-50 8.38052e-50 8.0248e-50 7.63039e-50 7.20095e-50 6.74138e-50 6.2574e-50 5.75518e-50 5.24118e-50 4.7221e-50 4.20494e-50 3.69697e-50 3.20562e-50 2.73825e-50 2.30171e-50 1.90193e-50 1.54344e-50 1.22903e-50 9.59597e-51 7.34152e-51 5.50075e-51 4.03467e-51 2.89598e-51 2.03362e-51 1.39685e-51 9.38388e-52 6.16513e-52 3.96115e-52 2.48904e-52 1.52968e-52 9.19539e-53 5.40746e-53 3.11123e-53 1.75169e-53 9.65267e-54 5.20696e-54 2.75015e-54 1.42251e-54 7.20733e-55 3.57777e-55 1.74048e-55 8.29929e-56 3.88001e-56 1.77887e-56 7.99979e-57 3.52969e-57 1.52834e-57 6.49576e-58 2.7106e-58 1.11078e-58 4.4711e-59 1.76817e-59 6.87146e-60 2.62475e-60 9.85675e-61 3.6398e-61 1.32194e-61 4.72307e-62 1.66037e-62 5.7443e-63 1.95618e-63 6.55843e-64 2.16504e-64 7.03409e-65 2.23444e-65 6.4376e-66 0 
0 4.26674e-93 2.3709e-92 1.26392e-91 6.6668e-91 3.4827e-90 1.80175e-89 9.23031e-89 4.68214e-88 2.35148e-87 1.16915e-86 5.75425e-86 2.80324e-85 1.35158e-84 6.44907e-84 3.04495e-83 1.42249e-82 6.57451e-82 3.00591e-81 1.35939e-80 6.08025e-80 2.68944e-79 1.1763e-78 5.08677e-78 2.17463e-77 9.18964e-77 3.83822e-76 1.58426e-75 6.4616e-75 2.60384e-74 1.03656e-73 4.07589e-73 1.58287e-72 6.07024e-72 2.29849e-71 8.59204e-71 3.17034e-70 1.15454e-69 4.14898e-69 1.47109e-68 5.14561e-68 1.77528e-67 6.04029e-67 2.02648e-66 6.7027e-66 2.18527e-65 7.02161e-65 2.22314e-64 6.93457e-64 2.13067e-63 6.44729e-63 1.92097e-62 5.63461e-62 1.62676e-61 4.62179e-61 1.29193e-60 3.55242e-60 9.60661e-60 2.55439e-59 6.67702e-59 1.71538e-58 4.33038e-58 1.07394e-57 2.61594e-57 6.25699e-57 1.46925e-56 3.3862e-56 7.65805e-56 1.69906e-55 3.69725e-55 7.88909e-55 1.65025e-54 3.38332e-54 6.7968e-54 1.33762e-53 2.57828e-53 4.86628e-53 8.99164e-53 1.62616e-52 2.87795e-52 4.98328e-52 8.44075e-52 1.39833e-51 2.26538e-51 3.58855e-51 5.55777e-51 8.41505e-51 1.24558e-50 1.80236e-50 2.54971e-50 3.52663e-50 4.76992e-50 6.31015e-50 8.16714e-50 1.03457e-49 1.28324e-49 1.55939e-49 1.85773e-49 2.17135e-49 2.49217e-49 2.81168e-49 3.12159e-49 3.41459e-49 3.68488e-49 3.92847e-49 4.1433e-49 4.32904e-49 4.48675e-49 4.61838e-49 4.72623e-49 4.81251e-49 4.87886e-49 4.9262e-49 4.95462e-49 4.96351e-49 4.95187e-49 4.91871e-49 4.86358e-49 4.78705e-49 4.69115e-49 4.57958e-49 4.45775e-49 4.33251e-49 4.21163e-49 4.10308e-49 4.0142e-49 3.95094e-49 3.91716e-49 3.91428e-49 3.9412e-49 3.99447e-49 4.06887e-49 4.15798e-49 4.25501e-49 4.35338e-49 4.44736e-49 4.53237e-49 4.60517e-49 4.66389e-49 4.70787e-49 4.73748e-49 4.75389e-49 4.75883e-49 4.7544e-49 4.74287e-49 4.72656e-49 4.70768e-49 4.68828e-49 4.67018e-49 4.65493e-49 4.64383e-49 4.63792e-49 4.63803e-49 4.64481e-49 4.6587e-49 4.67989e-49 4.70837e-49 4.74381e-49 4.78559e-49 4.83287e-49 4.88461e-49 4.93971e-49 4.99714e-49 5.05603e-49 5.1157e-49 5.1756e-49 5.23516e-49 5.29362e-49 5.34981e-49 5.40205e-49 5.4481e-49 5.48539e-49 5.51123e-49 5.52329e-49 5.52e-49 5.50085e-49 5.46662e-49 5.41925e-49 5.36157e-49 5.29681e-49 5.22801e-49 5.15745e-49 5.0862e-49 5.01389e-49 4.93876e-49 4.85788e-49 4.76765e-49 4.66434e-49 4.5446e-49 4.40592e-49 4.24694e-49 4.06745e-49 3.86838e-49 3.65153e-49 3.41938e-49 3.17478e-49 2.92081e-49 2.66073e-49 2.39792e-49 2.13591e-49 1.87838e-49 1.62914e-49 1.39193e-49 1.17025e-49 9.67156e-50 7.84966e-50 6.25129e-50 4.88119e-50 3.73458e-50 2.79823e-50 2.05241e-50 1.4731e-50 1.03438e-50 7.10428e-51 4.77206e-51 3.1348e-51 2.01384e-51 1.26521e-51 7.77417e-52 4.6724e-52 2.74709e-52 1.58022e-52 8.89495e-53 4.90038e-53 2.64277e-53 1.39548e-53 7.21621e-54 3.65523e-54 1.814e-54 8.82219e-55 4.20564e-55 1.96565e-55 9.00946e-56 4.05055e-56 1.78671e-56 7.73429e-57 3.28635e-57 1.37099e-57 5.61672e-58 2.26025e-58 8.93621e-59 3.47192e-59 1.32587e-59 4.97785e-60 1.83773e-60 6.67292e-61 2.38358e-61 8.37748e-62 2.8977e-62 9.86582e-63 3.30701e-63 1.09148e-63 3.54548e-64 1.12605e-64 3.24375e-65 0 