# vtk DataFile Version 3.0
Gray-Scott Simulation Output
ASCII
DATASET STRUCTURED_POINTS
DIMENSIONS 256 256 1
SPACING 1.0 1.0 1.0
ORIGIN 0 0 0
POINT_DATA 65536
SCALARS u double
LOOKUP_TABLE default
0 0 0 0 0 0 0 0 0 0 0 0 0 0 0 0 0 0 0 0 0 0 0 0 0 0 0 0 0 0 0 0 0 0 0 0 0 0 0 0 0 0 0 0 0 0 0 0 0 0 0 0 0 0 0 0 0 0 0 0 0 0 0 0 0 0 0 0 0 0 0 0 0 0 0 0 0 0 0 0 0 0 0 0 0 0 0 0 0 0 0 0 0 0 0 0 0 0 0 0 0 0 0 0 0 0 0 0 0 0 0 0 0 0 0 0 0 0 0 0 0 0 0 0 0 0 0 0 0 0 0 0 0 0 0 0 0 0 0 0 0 0 0 0 0 0 0 0 0 0 0 0 0 0 0 0 0 0 0 0 0 0 0 0 0 0 0 0 0 0 0 0 0 0 0 0 0 0 0 0 0 0 0 0 0 0 0 0 0 0 0 0 0 0 0 0 0 0 0 0 0 0 0 0 0 0 0 0 0 0 0 0 0 0 0 0 0 0 0 0 0 0 0 0 0 0 0 0 0 0 0 0 0 0 0 0 0 0 0 0 0 0 0 0 0 0 0 0 0 0 0 0 0 0 0 0 
0 1.79358e-74 5.93162e-74 1.77263e-73 5.20576e-73 1.51527e-72 4.37544e-72 1.25345e-71 3.56226e-71 1.00428e-70 2.80852e-70 7.79054e-70 2.14339e-69 5.84867e-69 1.58274e-68 4.24755e-68 1.13036e-67 2.98278e-67 7.80416e-67 2.02445e-66 5.20643e-66 1.32739e-65 3.35472e-65 8.40404e-65 2.08673e-64 5.1353e-64 1.25244e-63 3.02702e-63 7.24956e-63 1.72035e-62 4.04487e-62 9.42204e-62 2.17424e-61 4.97011e-61 1.12535e-60 2.52374e-60 5.60536e-60 1.23292e-59 2.68541e-59 5.79154e-59 1.23668e-58 2.61436e-58 5.47125e-58 1.13342e-57 2.32402e-57 4.71632e-57 9.47214e-57 1.88252e-56 3.70204e-56 7.20312e-56 1.38657e-55 2.64042e-55 4.97365e-55 9.26649e-55 1.70748e-54 3.11146e-54 5.60664e-54 9.98932e-54 1.75966e-53 3.06441e-53 5.27537e-53 8.97664e-53 1.50971e-52 2.50934e-52 4.12169e-52 6.68975e-52 1.07283e-51 1.69982e-51 2.66073e-51 4.11424e-51 6.28408e-51 9.4805e-51 1.41264e-50 2.07882e-50 3.02111e-50 4.3357e-50 6.14437e-50 8.59814e-50 1.18803e-49 1.62084e-49 2.1834e-49 2.90405e-49 3.81379e-49 4.94535e-49 6.33194e-49 8.0056e-49 9.99523e-49 1.23244e-48 1.50089e-48 1.80547e-48 2.1456e-48 2.51937e-48 2.92345e-48 3.35315e-48 3.80249e-48 4.2644e-48 4.73106e-48 5.19419e-48 5.64554e-48 6.0772e-48 6.48209e-48 6.85419e-48 7.18888e-48 7.48302e-48 7.73498e-48 7.9446e-48 8.11302e-48 8.24242e-48 8.33575e-48 8.39646e-48 8.42825e-48 8.43481e-48 8.41968e-48 8.38616e-48 8.33727e-48 8.27574e-48 8.20413e-48 8.12486e-48 8.04031e-48 7.95287e-48 7.865e-48 7.77919e-48 7.69795e-48 7.62369e-48 7.55866e-48 7.50477e-48 7.46354e-48 7.43594e-48 7.42237e-48 7.42259e-48 7.43576e-48 7.46049e-48 7.49494e-48 7.53692e-48 7.58408e-48 7.63402e-48 7.68445e-48 7.7333e-48 7.77885e-48 7.81977e-48 7.85515e-48 7.88456e-48 7.90797e-48 7.92571e-48 7.93847e-48 7.94715e-48 7.95285e-48 7.95676e-48 7.9601e-48 7.96407e-48 7.96978e-48 7.97825e-48 7.99031e-48 8.00665e-48 8.02775e-48 8.05394e-48 8.08531e-48 8.1218e-48 8.16315e-48 8.20896e-48 8.25863e-48 8.31144e-48 8.36653e-48 8.42292e-48 8.47953e-48 8.53519e-48 8.58867e-48 8.63873e-48 8.68411e-48 8.72362e-48 8.75616e-48 8.78078e-48 8.79669e-48 8.80332e-48 8.80032e-48 8.78758e-48 8.7652e-48 8.73345e-48 8.69273e-48 8.64349e-48 8.58617e-48 8.52112e-48 8.44853e-48 8.36834e-48 8.28025e-48 8.18365e-48 8.07761e-48 7.96092e-48 7.83214e-48 7.68959e-48 7.53151e-48 7.35609e-48 7.16164e-48 6.94668e-48 6.71009e-48 6.45122e-48 6.17005e-48 5.86726e-48 5.54431e-48 5.20346e-48 4.84778e-48 4.48104e-48 4.1076e-48 3.73226e-48 3.36001e-48 2.99583e-48 2.64449e-48 2.31028e-48 1.99687e-48 1.70716e-48 1.44322e-48 1.20622e-48 9.96479e-49 8.13553e-49 6.56318e-49 5.23118e-49 4.11904e-49 3.2038e-49 2.46137e-49 1.8677e-49 1.39971e-49 1.036e-49 7.57288e-50 5.46693e-50 3.8977e-50 2.74449e-50 1.90859e-50 1.31091e-50 8.89315e-51 5.95911e-51 3.9443e-51 2.57894e-51 1.66579e-51 1.063e-51 6.70199e-52 4.17506e-52 2.57003e-52 1.56336e-52 9.39852e-53 5.58429e-53 3.27958e-53 1.90389e-53 1.09263e-53 6.19935e-54 3.47771e-54 1.92908e-54 1.05815e-54 5.74014e-55 3.07961e-55 1.63403e-55 8.57209e-56 4.43947e-56 2.25545e-56 1.09375e-56 4.41835e-57 0 
0 5.92137e-74 1.95868e-73 5.85488e-73 1.71988e-72 5.00749e-72 1.44635e-71 4.14458e-71 1.17822e-70 3.32264e-70 9.29471e-70 2.57904e-69 7.09785e-69 1.93741e-68 5.24463e-68 1.40794e-67 3.74808e-67 9.89376e-67 2.58951e-66 6.71974e-66 1.72879e-65 4.40919e-65 1.11475e-64 2.79366e-64 6.93935e-64 1.70839e-63 4.16823e-63 1.00782e-62 2.41467e-62 5.73248e-62 1.34838e-61 3.14222e-61 7.25416e-61 1.65895e-60 3.75792e-60 8.43135e-60 1.8735e-59 4.12271e-59 8.98374e-59 1.9384e-58 4.14104e-58 8.75836e-58 1.8338e-57 3.80068e-57 7.79688e-57 1.58305e-56 3.1809e-56 6.32489e-56 1.24442e-55 2.42248e-55 4.66546e-55 8.88866e-55 1.67514e-54 3.12249e-54 5.75642e-54 1.04947e-53 1.89197e-53 3.3725e-53 5.94358e-53 1.03554e-52 1.78348e-52 3.03615e-52 5.10849e-52 8.49461e-52 1.39586e-51 2.26648e-51 3.63615e-51 5.76342e-51 9.02474e-51 1.39597e-50 2.1329e-50 3.21882e-50 4.7976e-50 7.06201e-50 1.02657e-49 1.4736e-49 2.08874e-49 2.92341e-49 4.03998e-49 5.51244e-49 7.42637e-49 9.87814e-49 1.2973e-48 1.68221e-48 2.15378e-48 2.72287e-48 3.3992e-48 4.19066e-48 5.1025e-48 6.13655e-48 7.29061e-48 8.5579e-48 9.92691e-48 1.13814e-47 1.29007e-47 1.44606e-47 1.60343e-47 1.75937e-47 1.91105e-47 2.0558e-47 2.19123e-47 2.31533e-47 2.42655e-47 2.52387e-47 2.6068e-47 2.67534e-47 2.72991e-47 2.77132e-47 2.80062e-47 2.81902e-47 2.82782e-47 2.82828e-47 2.82164e-47 2.80901e-47 2.79141e-47 2.76977e-47 2.74494e-47 2.71771e-47 2.68886e-47 2.65917e-47 2.62946e-47 2.60052e-47 2.57318e-47 2.54823e-47 2.5264e-47 2.50833e-47 2.4945e-47 2.48524e-47 2.48067e-47 2.4807e-47 2.48505e-47 2.49327e-47 2.50471e-47 2.51867e-47 2.53435e-47 2.55096e-47 2.56772e-47 2.58395e-47 2.59908e-47 2.61265e-47 2.62439e-47 2.63413e-47 2.64187e-47 2.64772e-47 2.65191e-47 2.65475e-47 2.6566e-47 2.65786e-47 2.65893e-47 2.66021e-47 2.66208e-47 2.66487e-47 2.66887e-47 2.67428e-47 2.6813e-47 2.69e-47 2.70044e-47 2.71258e-47 2.72635e-47 2.7416e-47 2.75814e-47 2.77573e-47 2.79408e-47 2.81287e-47 2.83173e-47 2.85028e-47 2.86811e-47 2.8848e-47 2.89993e-47 2.91312e-47 2.92399e-47 2.93223e-47 2.93758e-47 2.93984e-47 2.93891e-47 2.93476e-47 2.92741e-47 2.91698e-47 2.9036e-47 2.88742e-47 2.86861e-47 2.8473e-47 2.82354e-47 2.79734e-47 2.76859e-47 2.73711e-47 2.70257e-47 2.66459e-47 2.62265e-47 2.57619e-47 2.5246e-47 2.46726e-47 2.40356e-47 2.33298e-47 2.2551e-47 2.16967e-47 2.07664e-47 1.97621e-47 1.86882e-47 1.75523e-47 1.63644e-47 1.5137e-47 1.38849e-47 1.26243e-47 1.13721e-47 1.01454e-47 8.96035e-48 7.8318e-48 6.77241e-48 5.79224e-48 4.8985e-48 4.09541e-48 3.38425e-48 2.76366e-48 2.22998e-48 1.77769e-48 1.39994e-48 1.08897e-48 8.36664e-49 6.34879e-49 4.75792e-49 3.52144e-49 2.57391e-49 1.85795e-49 1.32448e-49 9.32464e-50 6.48345e-50 4.45226e-50 3.01974e-50 2.02298e-50 1.33865e-50 8.75025e-51 5.65031e-51 3.60454e-51 2.27186e-51 1.4148e-51 8.70596e-52 5.29397e-52 3.1814e-52 1.88956e-52 1.10928e-52 6.43711e-53 3.69271e-53 2.0943e-53 1.17437e-53 6.51141e-54 3.57016e-54 1.93585e-54 1.03814e-54 5.50592e-55 2.88713e-55 1.49459e-55 7.59002e-56 3.67931e-56 1.48591e-56 0 
0 1.76588e-73 5.84268e-73 1.74702e-72 5.13355e-72 1.49515e-71 4.31999e-71 1.23834e-70 3.52156e-70 9.93458e-70 2.78009e-69 7.71689e-69 2.1246e-68 5.80146e-68 1.57109e-67 4.21936e-67 1.12369e-66 2.96742e-66 7.76995e-66 2.01716e-65 5.19181e-65 1.32473e-64 3.35076e-64 8.40115e-64 2.08779e-63 5.14234e-63 1.25526e-62 3.03653e-62 7.27891e-62 1.7289e-61 4.06874e-61 9.48656e-61 2.19122e-60 5.01375e-60 1.13634e-59 2.5509e-59 5.67137e-59 1.2487e-58 2.72254e-58 5.87768e-58 1.25637e-57 2.65877e-57 5.57007e-57 1.15511e-56 2.37103e-56 4.81688e-56 9.68449e-56 1.9268e-55 3.79322e-55 7.38852e-55 1.4238e-54 2.71424e-54 5.11823e-54 9.5461e-54 1.76089e-53 3.21218e-53 5.79424e-53 1.03344e-52 1.82232e-52 3.17676e-52 5.47427e-52 9.32428e-52 1.56969e-51 2.6115e-51 4.29346e-51 6.97478e-51 1.11951e-50 1.77527e-50 2.78106e-50 4.30362e-50 6.57816e-50 9.93103e-50 1.48073e-49 2.18034e-49 3.17041e-49 4.55226e-49 6.45417e-49 9.03523e-49 1.24885e-48 1.70427e-48 2.29626e-48 3.05459e-48 4.01176e-48 5.20203e-48 6.66003e-48 8.41904e-48 1.05088e-47 1.29533e-47 1.57682e-47 1.89584e-47 2.25163e-47 2.64201e-47 3.06332e-47 3.51041e-47 3.97684e-47 4.45504e-47 4.93664e-47 5.4129e-47 5.8751e-47 6.31501e-47 6.72529e-47 7.09984e-47 7.43402e-47 7.72486e-47 7.97101e-47 8.17265e-47 8.33136e-47 8.44976e-47 8.5313e-47 8.57989e-47 8.59961e-47 8.59451e-47 8.56842e-47 8.52482e-47 8.46685e-47 8.39732e-47 8.31876e-47 8.23357e-47 8.14403e-47 8.05246e-47 7.96119e-47 7.87264e-47 7.78919e-47 7.71318e-47 7.64677e-47 7.59183e-47 7.5498e-47 7.52161e-47 7.50763e-47 7.50758e-47 7.52059e-47 7.54524e-47 7.57966e-47 7.62164e-47 7.66881e-47 7.71873e-47 7.76912e-47 7.81789e-47 7.86332e-47 7.90406e-47 7.93923e-47 7.96839e-47 7.9915e-47 8.00894e-47 8.02138e-47 8.02975e-47 8.03514e-47 8.03876e-47 8.04183e-47 8.04556e-47 8.05108e-47 8.05939e-47 8.07132e-47 8.08758e-47 8.10865e-47 8.13483e-47 8.16624e-47 8.2028e-47 8.24426e-47 8.2902e-47 8.34004e-47 8.39305e-47 8.44837e-47 8.50502e-47 8.5619e-47 8.61785e-47 8.67164e-47 8.72201e-47 8.76772e-47 8.80756e-47 8.84045e-47 8.86541e-47 8.88169e-47 8.88872e-47 8.88618e-47 8.87399e-47 8.85227e-47 8.82135e-47 8.78168e-47 8.73378e-47 8.67814e-47 8.61519e-47 8.54517e-47 8.4681e-47 8.3837e-47 8.29139e-47 8.19025e-47 8.07904e-47 7.95624e-47 7.82007e-47 7.6686e-47 7.49986e-47 7.31192e-47 7.10304e-47 6.87181e-47 6.61734e-47 6.33933e-47 6.03823e-47 5.71532e-47 5.37275e-47 5.01354e-47 4.64148e-47 4.26106e-47 3.87723e-47 3.49524e-47 3.12037e-47 2.75768e-47 2.41179e-47 2.08668e-47 1.78556e-47 1.51071e-47 1.26353e-47 1.04447e-47 8.53189e-48 6.886e-48 5.49045e-48 4.32438e-48 3.36417e-48 2.58489e-48 1.96151e-48 1.46998e-48 1.08791e-48 7.95111e-49 5.73874e-49 4.09036e-49 2.87919e-49 2.00149e-49 1.37412e-49 9.31747e-50 6.24015e-50 4.12796e-50 2.69738e-50 1.74117e-50 1.11034e-50 6.99549e-51 4.35465e-51 2.67851e-51 1.62805e-51 9.77932e-52 5.80564e-52 3.40662e-52 1.97589e-52 1.13293e-52 6.42213e-53 3.59934e-53 1.99467e-53 1.09309e-53 5.924e-54 3.17518e-54 1.68311e-54 8.82099e-55 4.56399e-55 2.31658e-55 1.12247e-55 4.53168e-56 0 
0 5.17463e-73 1.71256e-72 5.12237e-72 1.5057e-71 4.38686e-71 1.26797e-70 3.63598e-70 1.03437e-69 2.91915e-69 8.17208e-69 2.26927e-68 6.25019e-68 1.70738e-67 4.62568e-67 1.24281e-66 3.31124e-66 8.74809e-66 2.29164e-65 5.95203e-65 1.53265e-64 3.91253e-64 9.90102e-64 2.48362e-63 6.17515e-63 1.52173e-62 3.71648e-62 8.99499e-62 2.15733e-61 5.12684e-61 1.20719e-60 2.81618e-60 6.50845e-60 1.49004e-59 3.37901e-59 7.58967e-59 1.68837e-58 3.71957e-58 8.11458e-58 1.75289e-57 3.74912e-57 7.93881e-57 1.66418e-56 3.45326e-56 7.09269e-56 1.44182e-55 2.90063e-55 5.77461e-55 1.13754e-54 2.21712e-54 4.27517e-54 8.15502e-54 1.53875e-53 2.87173e-53 5.30053e-53 9.6751e-53 1.74629e-52 3.11649e-52 5.49879e-52 9.59143e-52 1.65378e-51 2.81848e-51 4.74742e-51 7.90262e-51 1.29993e-50 2.11285e-50 3.393e-50 5.3831e-50 8.43687e-50 1.30617e-49 1.99735e-49 3.0166e-49 4.49949e-49 6.62772e-49 9.6404e-49 1.38463e-48 1.96364e-48 2.74955e-48 3.80116e-48 5.18819e-48 6.99121e-48 9.30081e-48 1.22158e-47 1.58401e-47 2.02789e-47 2.56325e-47 3.19906e-47 3.94246e-47 4.79804e-47 5.7671e-47 6.84702e-47 8.03089e-47 9.30724e-47 1.06601e-46 1.20696e-46 1.35123e-46 1.49626e-46 1.63938e-46 1.77794e-46 1.90943e-46 2.03164e-46 2.14275e-46 2.2414e-46 2.32674e-46 2.3984e-46 2.45653e-46 2.50165e-46 2.53463e-46 2.55658e-46 2.56872e-46 2.57235e-46 2.56873e-46 2.55902e-46 2.5443e-46 2.52552e-46 2.50352e-46 2.47904e-46 2.45279e-46 2.42543e-46 2.39761e-46 2.37003e-46 2.34336e-46 2.31829e-46 2.29551e-46 2.27564e-46 2.25921e-46 2.24664e-46 2.2382e-46 2.234e-46 2.23394e-46 2.23775e-46 2.24503e-46 2.25519e-46 2.2676e-46 2.28155e-46 2.2963e-46 2.31119e-46 2.3256e-46 2.339e-46 2.35102e-46 2.36138e-46 2.36995e-46 2.37674e-46 2.38184e-46 2.38546e-46 2.38788e-46 2.38942e-46 2.39044e-46 2.3913e-46 2.39237e-46 2.39396e-46 2.39639e-46 2.3999e-46 2.40469e-46 2.41091e-46 2.41865e-46 2.42794e-46 2.43876e-46 2.45104e-46 2.46464e-46 2.47941e-46 2.49511e-46 2.51151e-46 2.52829e-46 2.54516e-46 2.56175e-46 2.5777e-46 2.59265e-46 2.60621e-46 2.61805e-46 2.62783e-46 2.63527e-46 2.64015e-46 2.6423e-46 2.64163e-46 2.63812e-46 2.63182e-46 2.62282e-46 2.61128e-46 2.59736e-46 2.58122e-46 2.56298e-46 2.54274e-46 2.52052e-46 2.49623e-46 2.46972e-46 2.44071e-46 2.40882e-46 2.3736e-46 2.33451e-46 2.29094e-46 2.24227e-46 2.18791e-46 2.12728e-46 2.05992e-46 1.98552e-46 1.90394e-46 1.81528e-46 1.71987e-46 1.61833e-46 1.51155e-46 1.40064e-46 1.28697e-46 1.17201e-46 1.05737e-46 9.4466e-47 8.35428e-47 7.311e-47 6.32912e-47 5.41859e-47 4.58665e-47 3.83774e-47 3.17352e-47 2.59312e-47 2.0934e-47 1.66948e-47 1.31512e-47 1.02322e-47 7.86248e-48 5.9665e-48 4.47129e-48 3.30895e-48 2.41816e-48 1.74509e-48 1.24363e-48 8.7522e-49 6.08279e-49 4.17507e-49 2.8302e-49 1.89488e-49 1.25308e-49 8.18525e-50 5.28163e-50 3.36676e-50 2.12028e-50 1.31929e-50 8.11124e-51 4.92789e-51 2.95866e-51 1.7556e-51 1.02963e-51 5.96896e-52 3.42068e-52 1.93802e-52 1.0856e-52 6.01286e-53 3.29328e-53 1.7838e-53 9.55557e-54 5.06241e-54 2.65167e-54 1.37121e-54 6.95627e-55 3.36898e-55 1.35967e-55 0 
0 1.50287e-72 4.97515e-72 1.48859e-71 4.37716e-71 1.27575e-70 3.68873e-70 1.05816e-69 3.01143e-69 8.50195e-69 2.38104e-68 6.61447e-68 1.82255e-67 4.9808e-67 1.34998e-66 3.62865e-66 9.67219e-66 2.55648e-65 6.69999e-65 1.74099e-64 4.48518e-64 1.14552e-63 2.90027e-63 7.27881e-63 1.81068e-62 4.46434e-62 1.09088e-61 2.64166e-61 6.33907e-61 1.50729e-60 3.55109e-60 8.28878e-60 1.9167e-59 4.39061e-59 9.96254e-59 2.23903e-58 4.98383e-58 1.09863e-57 2.39821e-57 5.18375e-57 1.1094e-56 2.35063e-56 4.93062e-56 1.02378e-55 2.10409e-55 4.27997e-55 8.61593e-55 1.71638e-54 3.38327e-54 6.59842e-54 1.27317e-53 2.43017e-53 4.58838e-53 8.5687e-53 1.58259e-52 2.89054e-52 5.22052e-52 9.32254e-52 1.6459e-51 2.87266e-51 4.95608e-51 8.45145e-51 1.42438e-50 2.37238e-50 3.90456e-50 6.34971e-50 1.02022e-49 1.61942e-49 2.53933e-49 3.93311e-49 6.01702e-49 9.09131e-49 1.35657e-48 1.99894e-48 2.90854e-48 4.17876e-48 5.92781e-48 8.30227e-48 1.148e-47 1.56716e-47 2.11206e-47 2.81004e-47 3.69092e-47 4.78601e-47 6.12688e-47 7.74368e-47 9.66315e-47 1.19064e-46 1.44868e-46 1.74075e-46 2.06598e-46 2.4222e-46 2.80583e-46 3.21198e-46 3.63451e-46 4.0663e-46 4.49954e-46 4.92611e-46 5.338e-46 5.72769e-46 6.08857e-46 6.41525e-46 6.70374e-46 6.95164e-46 7.15807e-46 7.32361e-46 7.45008e-46 7.54029e-46 7.59773e-46 7.6263e-46 7.62997e-46 7.61265e-46 7.57792e-46 7.52903e-46 7.46884e-46 7.39981e-46 7.32416e-46 7.24389e-46 7.1609e-46 7.07708e-46 6.99436e-46 6.91468e-46 6.84002e-46 6.7723e-46 6.7133e-46 6.66458e-46 6.62732e-46 6.60229e-46 6.58974e-46 6.58941e-46 6.60051e-46 6.62177e-46 6.65155e-46 6.6879e-46 6.72875e-46 6.77198e-46 6.81558e-46 6.85775e-46 6.89696e-46 6.93207e-46 6.96231e-46 6.9873e-46 7.00703e-46 7.02182e-46 7.03227e-46 7.03919e-46 7.04354e-46 7.04638e-46 7.04877e-46 7.05177e-46 7.05634e-46 7.06337e-46 7.07359e-46 7.08759e-46 7.1058e-46 7.12847e-46 7.15572e-46 7.18746e-46 7.22349e-46 7.26343e-46 7.30677e-46 7.3529e-46 7.40105e-46 7.45037e-46 7.49992e-46 7.54868e-46 7.59559e-46 7.63954e-46 7.67947e-46 7.71432e-46 7.74316e-46 7.76515e-46 7.77963e-46 7.78615e-46 7.78443e-46 7.77444e-46 7.75634e-46 7.73045e-46 7.69722e-46 7.65717e-46 7.6108e-46 7.55855e-46 7.5007e-46 7.43732e-46 7.36825e-46 7.29299e-46 7.21076e-46 7.12045e-46 7.02067e-46 6.90977e-46 6.78593e-46 6.64721e-46 6.4917e-46 6.31762e-46 6.12347e-46 5.90813e-46 5.67109e-46 5.41246e-46 5.13316e-46 4.83492e-46 4.52028e-46 4.19256e-46 3.85576e-46 3.51436e-46 3.17317e-46 2.83707e-46 2.51077e-46 2.19865e-46 1.90448e-46 1.63136e-46 1.38155e-46 1.15645e-46 9.56644e-47 7.81924e-47 6.31404e-47 5.03646e-47 3.96805e-47 3.08764e-47 2.37272e-47 1.8006e-47 1.34934e-47 9.98509e-48 7.29633e-48 5.26477e-48 3.7513e-48 2.63948e-48 1.83402e-48 1.2585e-48 8.52863e-49 5.7083e-49 3.7736e-49 2.46406e-49 1.58935e-49 1.01272e-49 6.37507e-50 3.96498e-50 2.43661e-50 1.47963e-50 8.87923e-51 5.26606e-51 3.08687e-51 1.78858e-51 1.02445e-51 5.80093e-52 3.24765e-52 1.79779e-52 9.84103e-53 5.32733e-53 2.85214e-53 1.51015e-53 7.90556e-54 4.08574e-54 2.07159e-54 1.0028e-54 4.04571e-55 0 
0 4.32995e-72 1.43379e-71 4.29143e-71 1.26233e-70 3.68047e-70 1.06458e-69 3.05504e-69 8.69775e-69 2.45654e-68 6.88253e-68 1.91273e-67 5.27256e-67 1.44154e-66 3.90881e-66 1.05112e-65 2.80304e-65 7.4122e-65 1.94349e-64 5.05254e-64 1.30228e-63 3.32769e-63 8.42939e-63 2.1166e-62 5.26801e-62 1.29954e-61 3.17719e-61 7.69799e-61 1.84827e-60 4.39724e-60 1.03655e-59 2.42086e-59 5.60128e-59 1.28385e-58 2.91486e-58 6.55495e-58 1.45995e-57 3.22028e-57 7.03399e-57 1.52136e-56 3.25799e-56 6.90757e-56 1.44985e-55 3.01238e-55 6.19513e-55 1.26099e-54 2.54015e-54 5.06357e-54 9.98779e-54 1.94922e-53 3.76352e-53 7.18842e-53 1.35813e-52 2.53796e-52 4.69052e-52 8.57267e-52 1.54929e-51 2.76841e-51 4.89073e-51 8.54133e-51 1.47451e-50 2.51596e-50 4.24282e-50 7.07075e-50 1.16439e-49 1.89461e-49 3.04574e-49 4.83707e-49 7.58848e-49 1.17592e-48 1.79978e-48 2.72051e-48 4.06105e-48 5.98631e-48 8.71336e-48 1.25226e-47 1.7769e-47 2.48928e-47 3.44278e-47 4.70065e-47 6.33592e-47 8.43059e-47 1.10739e-46 1.43596e-46 1.8382e-46 2.32307e-46 2.89849e-46 3.57069e-46 4.34346e-46 5.21757e-46 6.19018e-46 7.25445e-46 8.39939e-46 9.61e-46 1.08676e-45 1.21506e-45 1.34353e-45 1.46973e-45 1.59126e-45 1.70587e-45 1.8116e-45 1.90686e-45 1.9905e-45 2.06185e-45 2.12072e-45 2.16732e-45 2.20227e-45 2.22646e-45 2.24101e-45 2.24711e-45 2.246e-45 2.23887e-45 2.22682e-45 2.21081e-45 2.19171e-45 2.17023e-45 2.14702e-45 2.12265e-45 2.09766e-45 2.07258e-45 2.04795e-45 2.02431e-45 2.00224e-45 1.98225e-45 1.96488e-45 1.95054e-45 1.93957e-45 1.9322e-45 1.92849e-45 1.92834e-45 1.93154e-45 1.93771e-45 1.94636e-45 1.95692e-45 1.96879e-45 1.98136e-45 1.99402e-45 2.00626e-45 2.01764e-45 2.02782e-45 2.03658e-45 2.0438e-45 2.04949e-45 2.05374e-45 2.05673e-45 2.05869e-45 2.05991e-45 2.06069e-45 2.06134e-45 2.06217e-45 2.06347e-45 2.06549e-45 2.06844e-45 2.0725e-45 2.07779e-45 2.08438e-45 2.0923e-45 2.10154e-45 2.11203e-45 2.12366e-45 2.13629e-45 2.14972e-45 2.16376e-45 2.17813e-45 2.19258e-45 2.2068e-45 2.22048e-45 2.2333e-45 2.24496e-45 2.25514e-45 2.26358e-45 2.27002e-45 2.27429e-45 2.27625e-45 2.27583e-45 2.27302e-45 2.26786e-45 2.26048e-45 2.251e-45 2.23959e-45 2.2264e-45 2.21157e-45 2.19521e-45 2.17733e-45 2.15789e-45 2.13677e-45 2.11373e-45 2.08845e-45 2.06051e-45 2.02942e-45 1.99461e-45 1.9555e-45 1.91149e-45 1.86202e-45 1.8066e-45 1.74486e-45 1.6766e-45 1.60182e-45 1.52075e-45 1.43386e-45 1.34189e-45 1.24581e-45 1.1468e-45 1.04618e-45 9.45393e-46 8.4591e-46 7.49159e-46 6.5646e-46 5.68972e-46 4.87639e-46 4.13164e-46 3.45994e-46 2.8632e-46 2.341e-46 1.89085e-46 1.50857e-46 1.18874e-46 9.25087e-47 7.10935e-47 5.39521e-47 4.04299e-47 2.99162e-47 2.18582e-47 1.57699e-47 1.12345e-47 7.90321e-48 5.49016e-48 3.76631e-48 2.55161e-48 1.70727e-48 1.12823e-48 7.36432e-49 4.7482e-49 3.02424e-49 1.90294e-49 1.18299e-49 7.26646e-50 4.4104e-50 2.64535e-50 1.56808e-50 9.18698e-51 5.3202e-51 3.04559e-51 1.7236e-51 9.64413e-52 5.3356e-52 2.919e-52 1.57925e-52 8.44999e-53 4.47147e-53 2.3394e-53 1.20834e-53 6.1232e-54 2.96259e-54 1.1948e-54 0 
0 1.23761e-71 4.09931e-71 1.22737e-70 3.61164e-70 1.05341e-69 3.04814e-69 8.7507e-69 2.49232e-68 7.04202e-68 1.97378e-67 5.48767e-67 1.51336e-66 4.13938e-66 1.12291e-65 3.02101e-65 8.05987e-65 2.13231e-64 5.59362e-64 1.4549e-63 3.75183e-63 9.59177e-63 2.43094e-62 6.10724e-62 1.52083e-61 3.7537e-61 9.18226e-61 2.226e-60 5.3476e-60 1.27298e-59 3.00251e-59 7.01647e-59 1.62441e-58 3.72549e-58 8.46355e-58 1.90447e-57 4.24438e-57 9.36792e-57 2.04752e-56 4.43138e-56 9.49599e-56 2.01465e-55 4.23141e-55 8.79752e-55 1.81047e-54 3.68762e-54 7.43338e-54 1.48278e-53 2.92674e-53 5.71572e-53 1.10433e-52 2.11074e-52 3.9906e-52 7.4623e-52 1.38007e-51 2.52398e-51 4.56446e-51 8.16156e-51 1.44278e-50 2.52133e-50 4.35537e-50 7.43618e-50 1.25477e-49 2.09235e-49 3.44763e-49 5.61289e-49 9.0281e-49 1.43455e-48 2.25169e-48 3.49095e-48 5.34548e-48 8.08364e-48 1.20719e-47 1.78017e-47 2.59205e-47 3.72642e-47 5.28917e-47 7.41156e-47 1.02528e-46 1.40013e-46 1.88748e-46 2.51173e-46 3.29944e-46 4.27846e-46 5.47671e-46 6.92073e-46 8.63381e-46 1.0634e-45 1.29323e-45 1.55301e-45 1.84184e-45 2.15758e-45 2.49689e-45 2.85519e-45 3.22683e-45 3.60531e-45 3.98353e-45 4.35417e-45 4.71007e-45 5.04457e-45 5.35189e-45 5.62741e-45 5.86783e-45 6.07132e-45 6.23743e-45 6.36704e-45 6.46215e-45 6.52561e-45 6.56085e-45 6.57161e-45 6.56166e-45 6.53462e-45 6.49379e-45 6.44209e-45 6.38203e-45 6.31573e-45 6.24504e-45 6.17157e-45 6.09685e-45 6.02233e-45 5.94951e-45 5.87992e-45 5.81511e-45 5.75659e-45 5.70578e-45 5.66389e-45 5.63187e-45 5.61032e-45 5.5994e-45 5.59885e-45 5.60799e-45 5.62572e-45 5.65064e-45 5.6811e-45 5.71533e-45 5.75155e-45 5.78805e-45 5.82331e-45 5.85606e-45 5.88532e-45 5.91047e-45 5.93118e-45 5.94745e-45 5.95957e-45 5.96803e-45 5.97354e-45 5.97691e-45 5.97902e-45 5.98079e-45 5.98309e-45 5.98674e-45 5.99249e-45 6.00095e-45 6.01261e-45 6.02783e-45 6.04684e-45 6.06971e-45 6.09638e-45 6.12668e-45 6.16028e-45 6.19677e-45 6.23561e-45 6.27617e-45 6.31774e-45 6.35952e-45 6.40066e-45 6.44025e-45 6.47738e-45 6.51114e-45 6.54065e-45 6.56513e-45 6.58389e-45 6.59638e-45 6.60222e-45 6.60123e-45 6.59339e-45 6.57887e-45 6.55801e-45 6.53122e-45 6.49901e-45 6.46187e-45 6.42023e-45 6.37439e-45 6.3245e-45 6.27044e-45 6.21185e-45 6.14808e-45 6.07816e-45 6.00088e-45 5.91475e-45 5.81808e-45 5.70907e-45 5.58587e-45 5.44673e-45 5.2901e-45 5.11477e-45 4.92e-45 4.70566e-45 4.47232e-45 4.22127e-45 3.9546e-45 3.6751e-45 3.38623e-45 3.09191e-45 2.79643e-45 2.50414e-45 2.21936e-45 1.94605e-45 1.68772e-45 1.44726e-45 1.22683e-45 1.02782e-45 8.50869e-46 6.95905e-46 5.62235e-46 4.4866e-46 3.53595e-46 2.75201e-46 2.11507e-46 1.60513e-46 1.2028e-46 8.89955e-47 6.50175e-47 4.6901e-47 3.34065e-47 2.34956e-47 1.63178e-47 1.11911e-47 7.57946e-48 5.06968e-48 3.34906e-48 2.1852e-48 1.40835e-48 8.96632e-49 5.63933e-49 3.50416e-49 2.15137e-49 1.30513e-49 7.82411e-50 4.63545e-50 2.71432e-50 1.57101e-50 8.98829e-51 5.08388e-51 2.84295e-51 1.57194e-51 8.59468e-52 4.64714e-52 2.48502e-52 1.3142e-52 6.87154e-53 3.54715e-53 1.79646e-53 8.68741e-54 3.50227e-54 0 
0 3.50922e-71 1.16269e-70 3.4824e-70 1.0251e-69 2.99105e-69 8.65827e-69 2.48663e-68 7.08513e-68 2.00272e-67 5.6157e-67 1.56199e-66 4.30945e-66 1.17926e-65 3.2005e-65 8.61438e-65 2.29935e-64 6.08604e-64 1.59731e-63 4.15666e-63 1.07245e-62 2.74319e-62 6.95599e-62 1.74848e-61 4.35645e-61 1.07584e-60 2.63319e-60 6.38712e-60 1.53528e-59 3.65683e-59 8.6303e-59 2.018e-58 4.6748e-58 1.0728e-57 2.43871e-57 5.49106e-57 1.22455e-56 2.70449e-56 5.915e-56 1.28101e-55 2.7469e-55 5.83168e-55 1.22567e-54 2.55002e-54 5.25137e-54 1.07035e-53 2.15907e-53 4.30982e-53 8.51272e-53 1.66363e-52 3.21654e-52 6.15213e-52 1.16394e-51 2.17804e-51 4.03082e-51 7.37693e-51 1.33498e-50 2.38863e-50 4.22536e-50 7.38889e-50 1.27719e-49 2.18201e-49 3.6842e-49 6.1472e-49 1.01349e-48 1.65097e-48 2.657e-48 4.22422e-48 6.63386e-48 1.02901e-47 1.5764e-47 2.38497e-47 3.56316e-47 5.25647e-47 7.65656e-47 1.1011e-46 1.56334e-46 2.19124e-46 3.03194e-46 4.14123e-46 5.5835e-46 7.43095e-46 9.76199e-46 1.26588e-45 1.62035e-45 2.0474e-45 2.55385e-45 3.14491e-45 3.82363e-45 4.59031e-45 5.44199e-45 6.37216e-45 7.37061e-45 8.42354e-45 9.514e-45 1.06225e-44 1.17279e-44 1.28084e-44 1.38429e-44 1.48117e-44 1.56979e-44 1.64882e-44 1.71733e-44 1.77481e-44 1.82119e-44 1.85677e-44 1.88222e-44 1.89841e-44 1.90643e-44 1.90739e-44 1.90247e-44 1.89274e-44 1.8792e-44 1.86271e-44 1.84401e-44 1.82371e-44 1.80234e-44 1.78035e-44 1.75816e-44 1.73618e-44 1.7148e-44 1.69446e-44 1.67557e-44 1.65856e-44 1.64381e-44 1.63167e-44 1.62239e-44 1.61614e-44 1.61295e-44 1.61275e-44 1.61534e-44 1.6204e-44 1.62752e-44 1.63623e-44 1.64602e-44 1.65638e-44 1.66681e-44 1.67689e-44 1.68624e-44 1.69458e-44 1.70175e-44 1.70764e-44 1.71225e-44 1.71567e-44 1.71805e-44 1.71959e-44 1.72051e-44 1.72107e-44 1.72154e-44 1.72217e-44 1.72319e-44 1.72481e-44 1.72721e-44 1.73054e-44 1.73489e-44 1.74032e-44 1.74687e-44 1.75451e-44 1.76319e-44 1.77282e-44 1.78328e-44 1.79442e-44 1.80605e-44 1.81798e-44 1.82997e-44 1.84177e-44 1.85314e-44 1.8638e-44 1.8735e-44 1.88199e-44 1.88904e-44 1.89445e-44 1.89808e-44 1.89981e-44 1.89959e-44 1.89743e-44 1.89338e-44 1.88754e-44 1.88005e-44 1.87104e-44 1.86069e-44 1.84911e-44 1.83642e-44 1.82265e-44 1.80779e-44 1.79174e-44 1.77431e-44 1.75522e-44 1.73412e-44 1.71057e-44 1.68405e-44 1.65403e-44 1.61993e-44 1.58122e-44 1.53741e-44 1.4881e-44 1.43304e-44 1.37215e-44 1.30556e-44 1.23362e-44 1.15692e-44 1.07626e-44 9.92628e-45 9.07193e-45 8.21208e-45 7.35971e-45 6.5276e-45 5.72766e-45 4.97045e-45 4.26466e-45 3.61691e-45 3.03152e-45 2.51055e-45 2.05397e-45 1.65988e-45 1.32485e-45 1.0443e-45 8.1286e-46 6.24765e-46 4.74142e-46 3.55287e-46 2.62858e-46 1.92015e-46 1.38492e-46 9.8626e-47 6.93508e-47 4.81523e-47 3.30145e-47 2.2353e-47 1.49462e-47 9.86991e-48 6.43741e-48 4.14717e-48 2.63915e-48 1.65913e-48 1.03045e-48 6.32333e-49 3.8341e-49 2.29729e-49 1.36032e-49 7.96103e-50 4.60512e-50 2.63324e-50 1.48852e-50 8.31904e-51 4.59705e-51 2.51194e-51 1.35738e-51 7.25402e-52 3.8339e-52 2.00339e-52 1.03353e-52 5.23129e-53 2.52844e-53 1.01894e-53 0 
0 9.87052e-71 3.27129e-70 9.80144e-70 2.88631e-69 8.42495e-69 2.43975e-68 7.00972e-68 1.99809e-67 5.65028e-67 1.58504e-66 4.41068e-66 1.21742e-65 3.33293e-65 9.04974e-65 2.43696e-64 6.50784e-64 1.72337e-63 4.52534e-63 1.17822e-62 3.04146e-62 7.78379e-62 1.97482e-61 4.96667e-61 1.23816e-60 3.05942e-60 7.49239e-60 1.81842e-59 4.37356e-59 1.04234e-58 2.46148e-58 5.75915e-58 1.33497e-57 3.0655e-57 6.97302e-57 1.57108e-56 3.50591e-56 7.74817e-56 1.69574e-55 3.67493e-55 7.88563e-55 1.67528e-54 3.52343e-54 7.33567e-54 1.51173e-53 3.08342e-53 6.22417e-53 1.24332e-52 2.45755e-52 4.80618e-52 9.2991e-52 1.77987e-51 3.36978e-51 6.31022e-51 1.16863e-50 2.14025e-50 3.87583e-50 6.93968e-50 1.22843e-49 2.1496e-49 3.71811e-49 6.35632e-49 1.07391e-48 1.79298e-48 2.9579e-48 4.82123e-48 7.76356e-48 1.23497e-47 1.94048e-47 3.01149e-47 4.61576e-47 6.98651e-47 1.04424e-46 1.54112e-46 2.24563e-46 3.23059e-46 4.58819e-46 6.43275e-46 8.90285e-46 1.21625e-45 1.64009e-45 2.183e-45 2.86798e-45 3.71909e-45 4.76037e-45 6.01451e-45 7.50122e-45 9.23552e-45 1.12259e-44 1.34726e-44 1.59664e-44 1.86873e-44 2.16045e-44 2.46767e-44 2.78534e-44 3.10766e-44 3.42836e-44 3.74104e-44 4.03946e-44 4.31789e-44 4.57143e-44 4.79625e-44 4.98971e-44 5.1505e-44 5.27853e-44 5.37491e-44 5.44168e-44 5.48163e-44 5.49802e-44 5.49432e-44 5.474e-44 5.44032e-44 5.39622e-44 5.34426e-44 5.28656e-44 5.22492e-44 5.1608e-44 5.09545e-44 5.03004e-44 4.96564e-44 4.90335e-44 4.84432e-44 4.78968e-44 4.74059e-44 4.69811e-44 4.66317e-44 4.63648e-44 4.61847e-44 4.60925e-44 4.60856e-44 4.61583e-44 4.63014e-44 4.65033e-44 4.67503e-44 4.70281e-44 4.73218e-44 4.76176e-44 4.79031e-44 4.81679e-44 4.8404e-44 4.86064e-44 4.87724e-44 4.89022e-44 4.89981e-44 4.90644e-44 4.91066e-44 4.91315e-44 4.91464e-44 4.91587e-44 4.91755e-44 4.92037e-44 4.92491e-44 4.93168e-44 4.94109e-44 4.95341e-44 4.96884e-44 4.98743e-44 5.00914e-44 5.03381e-44 5.06119e-44 5.09094e-44 5.12262e-44 5.15572e-44 5.18965e-44 5.22377e-44 5.25738e-44 5.28976e-44 5.32014e-44 5.34779e-44 5.37201e-44 5.39215e-44 5.40765e-44 5.41809e-44 5.42317e-44 5.42276e-44 5.41687e-44 5.40568e-44 5.3895e-44 5.36873e-44 5.34382e-44 5.31525e-44 5.28342e-44 5.24866e-44 5.21112e-44 5.17079e-44 5.12738e-44 5.08038e-44 5.029e-44 4.97219e-44 4.90865e-44 4.83688e-44 4.75523e-44 4.66199e-44 4.55551e-44 4.43424e-44 4.29694e-44 4.14276e-44 3.97136e-44 3.78298e-44 3.57856e-44 3.35973e-44 3.12877e-44 2.88855e-44 2.64244e-44 2.39411e-44 2.14739e-44 1.90605e-44 1.67364e-44 1.4533e-44 1.24764e-44 1.05867e-44 8.8772e-45 7.35445e-45 6.01888e-45 4.86535e-45 3.88414e-45 3.06211e-45 2.38374e-45 1.83225e-45 1.39053e-45 1.04193e-45 7.7081e-46 5.63003e-46 4.06005e-46 2.89079e-46 2.03226e-46 1.41069e-46 9.66926e-47 6.54462e-47 4.37449e-47 2.88767e-47 1.88266e-47 1.21235e-47 7.71165e-48 4.84574e-48 3.00814e-48 1.845e-48 1.11812e-48 6.69587e-49 3.9627e-49 2.3178e-49 1.33998e-49 7.6576e-50 4.32612e-50 2.41631e-50 1.33442e-50 7.28711e-51 3.93527e-51 2.10174e-51 1.11012e-51 5.7972e-52 2.98886e-52 1.51192e-52 7.30367e-53 2.94216e-53 0 