# vtk DataFile Version 3.0
Gray-Scott Simulation Output
ASCII
DATASET STRUCTURED_POINTS
DIMENSIONS 256 256 1
SPACING 1.0 1.0 1.0
ORIGIN 0 0 0
POINT_DATA 65536
SCALARS u double
LOOKUP_TABLE default
0 0 0 0 0 0 0 0 0 0 0 0 0 0 0 0 0 0 0 0 0 0 0 0 0 0 0 0 0 0 0 0 0 0 0 0 0 0 0 0 0 0 0 0 0 0 0 0 0 0 0 0 0 0 0 0 0 0 0 0 0 0 0 0 0 0 0 0 0 0 0 0 0 0 0 0 0 0 0 0 0 0 0 0 0 0 0 0 0 0 0 0 0 0 0 0 0 0 0 0 0 0 0 0 0 0 0 0 0 0 0 0 0 0 0 0 0 0 0 0 0 0 0 0 0 0 0 0 0 0 0 0 0 0 0 0 0 0 0 0 0 0 0 0 0 0 0 0 0 0 0 0 0 0 0 0 0 0 0 0 0 0 0 0 0 0 0 0 0 0 0 0 0 0 0 0 0 0 0 0 0 0 0 0 0 0 0 0 0 0 0 0 0 0 0 0 0 0 0 0 0 0 0 0 0 0 0 0 0 0 0 0 0 0 0 0 0 0 0 0 0 0 0 0 0 0 0 0 0 0 0 0 0 0 0 0 0 0 0 0 0 0 0 0 0 0 0 0 0 0 0 0 0 0 0 0 
0 7.04243e-168 1.16859e-166 1.91164e-165 3.0934e-164 4.95124e-163 7.8378e-162 1.22696e-160 1.89922e-159 2.90657e-158 4.39741e-157 6.5762e-156 9.71991e-155 1.41974e-153 2.04907e-152 2.92182e-151 4.1157e-150 5.72625e-149 7.86815e-148 1.06756e-146 1.4301e-145 1.89119e-144 2.46848e-143 3.17971e-142 4.04147e-141 5.06776e-140 6.26825e-139 7.64642e-138 9.19764e-137 1.09075e-135 1.27504e-134 1.46889e-133 1.66742e-132 1.86467e-131 2.05386e-130 2.22774e-129 2.37896e-128 2.50061e-127 2.58667e-126 2.63252e-125 2.63532e-124 2.59428e-123 2.51081e-122 2.38841e-121 2.23246e-120 2.04983e-119 1.84834e-118 1.63625e-117 1.42162e-116 1.21184e-115 1.0132e-114 8.30568e-114 6.67325e-113 5.25315e-112 4.05002e-111 3.05685e-110 2.25785e-109 1.63129e-108 1.15237e-107 7.95557e-107 5.36492e-106 3.53223e-105 2.26934e-104 1.42193e-103 8.68437e-103 5.16677e-102 2.99261e-101 1.68636e-100 9.23887e-100 4.91755e-99 2.54106e-98 1.27372e-97 6.18826e-97 2.91153e-96 1.32538e-95 5.83182e-95 2.47788e-94 1.01556e-93 4.01049e-93 1.52422e-92 5.56822e-92 1.95273e-91 6.56498e-91 2.11285e-90 6.49971e-90 1.90824e-89 5.33795e-89 1.42032e-88 3.58853e-88 8.59392e-88 1.94732e-87 4.1676e-87 8.40996e-87 1.59761e-86 2.85304e-86 4.78442e-86 7.52914e-86 1.11182e-85 1.54185e-85 2.01187e-85 2.47845e-85 2.89758e-85 3.23823e-85 3.49116e-85 3.66871e-85 3.79559e-85 3.89614e-85 3.98469e-85 4.06386e-85 4.13008e-85 4.18165e-85 4.2235e-85 4.26599e-85 4.31896e-85 4.3854e-85 4.45821e-85 4.52093e-85 4.55136e-85 4.52615e-85 4.42532e-85 4.2366e-85 3.96005e-85 3.61198e-85 3.22623e-85 2.85063e-85 2.53795e-85 2.33359e-85 2.26422e-85 2.3316e-85 2.51357e-85 2.77126e-85 3.05943e-85 3.33653e-85 3.57216e-85 3.75101e-85 3.87291e-85 3.94938e-85 3.99722e-85 4.03143e-85 4.0601e-85 4.0829e-85 4.09349e-85 4.08403e-85 4.04973e-85 3.99175e-85 3.91763e-85 3.8393e-85 3.76941e-85 3.71737e-85 3.68685e-85 3.6754e-85 3.67614e-85 3.68072e-85 3.6827e-85 3.68045e-85 3.67869e-85 3.6876e-85 3.71977e-85 3.78548e-85 3.88811e-85 4.02108e-85 4.16761e-85 4.3044e-85 4.40834e-85 4.46462e-85 4.47301e-85 4.44999e-85 4.42567e-85 4.43552e-85 4.50868e-85 4.65579e-85 4.8613e-85 5.08431e-85 5.26932e-85 5.36358e-85 5.3347e-85 5.18169e-85 4.93532e-85 4.64765e-85 4.37516e-85 4.16255e-85 4.03349e-85 3.99033e-85 4.01983e-85 4.09927e-85 4.1997e-85 4.28728e-85 4.32621e-85 4.28554e-85 4.14816e-85 3.91728e-85 3.61659e-85 3.28297e-85 2.95472e-85 2.65977e-85 2.40821e-85 2.19169e-85 1.98961e-85 1.77951e-85 1.54715e-85 1.29222e-85 1.02756e-85 7.73171e-86 5.48386e-86 3.65884e-86 2.29451e-86 1.35251e-86 7.49849e-87 3.91413e-87 1.92614e-87 8.94902e-88 3.9317e-88 1.63612e-88 6.45951e-89 2.42354e-89 8.6551e-90 2.94685e-90 9.58022e-91 2.97833e-91 8.86687e-92 2.53143e-92 6.93949e-93 1.82895e-93 4.63992e-94 1.13435e-94 2.67537e-95 6.09359e-96 1.34166e-96 2.85826e-97 5.89709e-98 1.1793e-98 2.28778e-99 4.30869e-100 7.88387e-101 1.40251e-101 2.42737e-102 4.08992e-103 6.71288e-104 1.07393e-104 1.67558e-105 2.55099e-106 3.79174e-107 5.50514e-108 7.81105e-109 1.08358e-109 1.47035e-110 1.9524e-111 2.53797e-112 3.23108e-113 4.03011e-114 4.92669e-115 5.90494e-116 6.94142e-117 8.00451e-118 8.95171e-119 0 
0 1.16807e-166 1.93695e-165 3.16644e-164 5.12048e-163 8.19026e-162 1.29565e-160 2.02691e-159 3.13538e-158 4.79519e-157 7.24995e-156 1.08349e-154 1.60039e-153 2.33606e-152 3.36935e-151 4.80129e-150 6.7587e-149 9.39732e-148 1.29039e-146 1.74968e-145 2.34234e-144 3.09553e-143 4.03784e-142 5.19786e-141 6.60231e-140 8.27356e-139 1.02269e-137 1.24674e-136 1.4987e-135 1.77617e-134 2.07495e-133 2.3889e-132 2.71005e-131 3.02872e-130 3.33392e-129 3.61388e-128 3.85678e-127 4.05146e-126 4.18827e-125 4.25985e-124 4.26173e-123 4.19277e-122 4.05537e-121 3.8553e-120 3.60136e-119 3.30472e-118 2.97807e-117 2.63474e-116 2.28776e-115 1.949e-114 1.62854e-113 1.3342e-112 1.07133e-111 8.42849e-111 6.49427e-110 4.89884e-109 3.61627e-108 2.61123e-107 1.84354e-106 1.27199e-105 8.5729e-105 5.64114e-104 3.6222e-103 2.26834e-102 1.3846e-101 8.23316e-101 4.76606e-100 2.68424e-99 1.4698e-98 7.81907e-98 4.03822e-97 2.02312e-96 9.82405e-96 4.61978e-95 2.10193e-94 9.24412e-94 3.92578e-93 1.6082e-92 6.34782e-92 2.4114e-91 8.80516e-91 3.0865e-90 1.03721e-89 3.33665e-89 1.02602e-88 3.01103e-88 8.41948e-88 2.2394e-87 5.65591e-87 1.35402e-86 3.0671e-86 6.56209e-86 1.32381e-85 2.51413e-85 4.48871e-85 7.52579e-85 1.18411e-84 1.7483e-84 2.42423e-84 3.16299e-84 3.89635e-84 4.5552e-84 5.09074e-84 5.48845e-84 5.76764e-84 5.96712e-84 6.12509e-84 6.26413e-84 6.38843e-84 6.49247e-84 6.57359e-84 6.63957e-84 6.7066e-84 6.79008e-84 6.89469e-84 7.00922e-84 7.10782e-84 7.15563e-84 7.11599e-84 6.9575e-84 6.66093e-84 6.22636e-84 5.67944e-84 5.07338e-84 4.48331e-84 3.99214e-84 3.67117e-84 3.56229e-84 3.66826e-84 3.95425e-84 4.3592e-84 4.81203e-84 5.24747e-84 5.61778e-84 5.89889e-84 6.09056e-84 6.21082e-84 6.28602e-84 6.33972e-84 6.3846e-84 6.42016e-84 6.43649e-84 6.42134e-84 6.36726e-84 6.27609e-84 6.15971e-84 6.03686e-84 5.92734e-84 5.8459e-84 5.79824e-84 5.78045e-84 5.78171e-84 5.78892e-84 5.79197e-84 5.78836e-84 5.78548e-84 5.79938e-84 5.84979e-84 5.95285e-84 6.11388e-84 6.3225e-84 6.55245e-84 6.76711e-84 6.93028e-84 7.01872e-84 7.03207e-84 6.9962e-84 6.9583e-84 6.97403e-84 7.08905e-84 7.32002e-84 7.64251e-84 7.99236e-84 8.28254e-84 8.43032e-84 8.38491e-84 8.14478e-84 7.7582e-84 7.30681e-84 6.8792e-84 6.54551e-84 6.34286e-84 6.27499e-84 6.32115e-84 6.44569e-84 6.60318e-84 6.74047e-84 6.80136e-84 6.73727e-84 6.52132e-84 6.15852e-84 5.68599e-84 5.16165e-84 4.64562e-84 4.18181e-84 3.78612e-84 3.44548e-84 3.12762e-84 2.79725e-84 2.432e-84 2.03134e-84 1.61542e-84 1.21562e-84 8.62312e-85 5.75424e-85 3.6092e-85 2.12789e-85 1.17998e-85 6.16085e-86 3.03254e-86 1.40933e-86 6.19365e-87 2.5782e-87 1.01823e-87 3.82159e-88 1.36529e-88 4.65022e-89 1.51238e-89 4.70363e-90 1.40092e-90 4.00123e-91 1.09735e-91 2.89346e-92 7.34386e-93 1.79624e-93 4.23848e-94 9.65852e-95 2.12762e-95 4.53494e-96 9.36115e-97 1.87301e-97 3.63543e-98 6.85041e-99 1.25413e-99 2.23225e-100 3.86555e-101 6.5167e-102 1.07019e-102 1.71306e-103 2.67427e-104 4.07377e-105 6.05862e-106 8.80144e-107 1.24953e-107 1.73441e-108 2.35485e-109 3.12873e-110 4.06952e-111 5.18397e-112 6.46981e-113 7.91389e-114 9.49102e-115 1.11637e-115 1.28813e-116 1.44142e-117 0 
0 1.90992e-165 3.16499e-164 5.17049e-163 8.35562e-162 1.33559e-160 2.11141e-159 3.30086e-158 5.1026e-157 7.79863e-156 1.1783e-154 1.75978e-153 2.59758e-152 3.78912e-151 5.46152e-150 7.77746e-149 1.0941e-147 1.52024e-146 2.08614e-145 2.8268e-144 3.78183e-143 4.99463e-142 6.51078e-141 8.37579e-140 1.0632e-138 1.33146e-137 1.64475e-136 2.00379e-135 2.4072e-134 2.85104e-133 3.32848e-132 3.82965e-131 4.34171e-130 4.84916e-129 5.3344e-128 5.7787e-127 6.16321e-126 6.47023e-125 6.68453e-124 6.79451e-123 6.79327e-122 6.67919e-121 6.4563e-120 6.13398e-119 5.72643e-118 5.25151e-117 4.72954e-116 4.18175e-115 3.62883e-114 3.08962e-113 2.58006e-112 2.11247e-111 1.69526e-110 1.33292e-109 1.02642e-108 7.73809e-108 5.70882e-107 4.11981e-106 2.90692e-105 2.00454e-104 1.35023e-103 8.87974e-103 5.6985e-102 3.56658e-101 2.17584e-100 1.29308e-99 7.48136e-99 4.2112e-98 2.30466e-97 1.22538e-96 6.32522e-96 3.16722e-95 1.53717e-94 7.22485e-94 3.28552e-93 1.44422e-92 6.13028e-92 2.51005e-91 9.9028e-91 3.76008e-90 1.37235e-89 4.80836e-89 1.61511e-88 5.19351e-88 1.59632e-87 4.68278e-87 1.30889e-86 3.48004e-86 8.78609e-86 2.10265e-85 4.76132e-85 1.01837e-84 2.05383e-84 3.89954e-84 6.96057e-84 1.16677e-83 1.83547e-83 2.70962e-83 3.7568e-83 4.90126e-83 6.03738e-83 7.05815e-83 7.88799e-83 8.50436e-83 8.93708e-83 9.24617e-83 9.49078e-83 9.70595e-83 9.8983e-83 1.00594e-82 1.01852e-82 1.02877e-82 1.03919e-82 1.05216e-82 1.06839e-82 1.08615e-82 1.10143e-82 1.10883e-82 1.10269e-82 1.07814e-82 1.0322e-82 9.64894e-83 8.80196e-83 7.86345e-83 6.94979e-83 6.18934e-83 5.69248e-83 5.52407e-83 5.68835e-83 6.13137e-83 6.75857e-83 7.45991e-83 8.13432e-83 8.7079e-83 9.14339e-83 9.4404e-83 9.6268e-83 9.74333e-83 9.82641e-83 9.89563e-83 9.95028e-83 9.97509e-83 9.9512e-83 9.86715e-83 9.72587e-83 9.54577e-83 9.35585e-83 9.18672e-83 9.0611e-83 8.98774e-83 8.96052e-83 8.96264e-83 8.97383e-83 8.97847e-83 8.97274e-83 8.96812e-83 8.98947e-83 9.06732e-83 9.22664e-83 9.47563e-83 9.79825e-83 1.01539e-82 1.04859e-82 1.07384e-82 1.08753e-82 1.08963e-82 1.08412e-82 1.0783e-82 1.08077e-82 1.09859e-82 1.13433e-82 1.18421e-82 1.2383e-82 1.28316e-82 1.30599e-82 1.29896e-82 1.26182e-82 1.20203e-82 1.13222e-82 1.06609e-82 1.01447e-82 9.83109e-83 9.72591e-83 9.79708e-83 9.98951e-83 1.02329e-82 1.0445e-82 1.05389e-82 1.04394e-82 1.01048e-82 9.54286e-83 8.81101e-83 7.99876e-83 7.19922e-83 6.48036e-83 5.8669e-83 5.33872e-83 4.84592e-83 4.3339e-83 3.768e-83 3.14736e-83 2.5031e-83 1.88381e-83 1.33647e-83 8.91969e-84 5.59563e-84 3.29969e-84 1.83018e-84 9.55788e-85 4.70585e-85 2.18758e-85 9.61669e-86 4.00434e-86 1.58198e-86 5.93952e-87 2.12269e-87 7.23269e-88 2.35319e-88 7.32157e-89 2.18154e-89 6.23348e-90 1.71031e-90 4.5117e-91 1.14564e-91 2.80345e-92 6.61828e-93 1.50889e-93 3.3255e-94 7.09172e-95 1.46464e-95 2.93201e-96 5.69389e-97 1.07349e-97 1.96634e-98 3.50182e-99 6.06734e-100 1.02342e-100 1.68163e-101 2.6933e-102 4.2069e-103 6.41211e-104 9.54172e-105 1.38694e-105 1.97016e-106 2.73628e-107 3.71731e-108 4.94185e-109 6.43166e-110 8.19789e-111 1.02374e-111 1.253e-112 1.50362e-113 1.76969e-114 2.04321e-115 2.28773e-116 0 
0 3.08917e-164 5.11574e-163 8.3517e-162 1.34874e-160 2.15443e-159 3.40361e-158 5.31746e-157 8.21445e-156 1.25463e-154 1.89437e-153 2.82733e-152 4.17061e-151 6.07969e-150 8.75727e-149 1.24625e-147 1.75202e-146 2.43281e-145 3.33622e-144 4.51774e-143 6.0401e-142 7.9719e-141 1.0385e-139 1.33512e-138 1.69366e-137 2.11963e-136 2.61667e-135 3.18582e-134 3.82474e-133 4.52704e-132 5.28177e-131 6.07318e-130 6.88084e-129 7.68016e-128 8.44336e-127 9.14082e-126 9.7429e-125 1.02218e-123 1.05538e-122 1.07207e-121 1.07121e-120 1.05257e-119 1.01681e-118 9.65453e-118 9.00752e-117 8.25544e-116 7.43036e-115 6.56576e-114 5.69417e-113 4.84514e-112 4.04362e-111 3.30882e-110 2.65374e-109 2.0853e-108 1.60485e-107 1.20917e-106 8.91552e-106 6.43021e-105 4.53451e-104 3.12508e-103 2.10382e-102 1.38278e-101 8.86888e-101 5.54775e-100 3.3826e-99 2.00914e-98 1.16179e-97 6.53606e-97 3.57505e-96 1.89984e-95 9.80147e-95 4.90531e-94 2.3795e-93 1.11781e-92 5.08073e-92 2.23223e-91 9.47048e-91 3.87582e-90 1.52838e-89 5.80054e-89 2.1161e-88 7.41094e-88 2.48822e-87 7.9976e-87 2.45719e-86 7.20518e-86 2.01314e-85 5.35046e-85 1.35035e-84 3.23049e-84 7.31283e-84 1.56362e-83 3.15259e-83 5.98416e-83 1.06791e-82 1.78971e-82 2.81494e-82 4.15498e-82 5.76011e-82 7.51428e-82 9.25569e-82 1.08204e-81 1.20927e-81 1.30378e-81 1.37014e-81 1.41752e-81 1.455e-81 1.48794e-81 1.51739e-81 1.54207e-81 1.56136e-81 1.57712e-81 1.59316e-81 1.61309e-81 1.63801e-81 1.66524e-81 1.68866e-81 1.70001e-81 1.69059e-81 1.65296e-81 1.58256e-81 1.47943e-81 1.34966e-81 1.20587e-81 1.0659e-81 9.49417e-82 8.73322e-82 8.4755e-82 8.72747e-82 9.40646e-82 1.03676e-81 1.14423e-81 1.24757e-81 1.33547e-81 1.40222e-81 1.44776e-81 1.47634e-81 1.4942e-81 1.50692e-81 1.51748e-81 1.52579e-81 1.52952e-81 1.52579e-81 1.51287e-81 1.49121e-81 1.46363e-81 1.43459e-81 1.40874e-81 1.38958e-81 1.3784e-81 1.37428e-81 1.37464e-81 1.37635e-81 1.37705e-81 1.37615e-81 1.37542e-81 1.37867e-81 1.39056e-81 1.41492e-81 1.45302e-81 1.50238e-81 1.55679e-81 1.6076e-81 1.64624e-81 1.66723e-81 1.67048e-81 1.66211e-81 1.65327e-81 1.65712e-81 1.68444e-81 1.73915e-81 1.81547e-81 1.89822e-81 1.96682e-81 2.00173e-81 1.99094e-81 1.9341e-81 1.84263e-81 1.73583e-81 1.63463e-81 1.55563e-81 1.50761e-81 1.49148e-81 1.50234e-81 1.53176e-81 1.56897e-81 1.60139e-81 1.61571e-81 1.60041e-81 1.54913e-81 1.46302e-81 1.35087e-81 1.22639e-81 1.10382e-81 9.93589e-82 8.99491e-82 8.18462e-82 7.4287e-82 6.64357e-82 5.77609e-82 4.82486e-82 3.83751e-82 2.88835e-82 2.04941e-82 1.368e-82 8.58342e-83 5.06254e-83 2.80856e-83 1.46707e-83 7.22501e-84 3.35956e-84 1.4773e-84 6.15331e-85 2.43175e-85 9.13309e-86 3.26519e-86 1.11297e-86 3.62249e-87 1.12753e-87 3.36098e-88 9.60765e-89 2.63724e-89 6.96001e-90 1.76813e-90 4.32874e-91 1.0224e-91 2.33208e-92 5.14228e-93 1.09715e-93 2.26708e-94 4.54072e-95 8.82255e-96 1.66423e-96 3.05002e-97 5.43465e-98 9.42134e-99 1.59004e-99 2.61411e-100 4.18909e-101 6.54699e-102 9.98449e-103 1.48662e-103 2.16212e-104 3.07309e-105 4.27059e-106 5.8051e-107 7.72194e-108 1.00558e-108 1.28249e-109 1.60252e-110 1.96257e-111 2.35653e-112 2.77522e-113 3.2061e-114 3.59192e-115 0 
0 4.94209e-163 8.17875e-162 1.33432e-160 2.1534e-159 3.43745e-158 5.42691e-157 8.47279e-156 1.30801e-154 1.99645e-153 3.01244e-152 4.49306e-151 6.62334e-150 9.64877e-149 1.3889e-147 1.97526e-146 2.77504e-145 3.85082e-144 5.27736e-143 7.14165e-142 9.54197e-141 1.25856e-139 1.63846e-138 2.10507e-137 2.66865e-136 3.33768e-135 4.11769e-134 5.01011e-133 6.01103e-132 7.11022e-131 8.29031e-130 9.52644e-129 1.07865e-127 1.20319e-126 1.32192e-125 1.43021e-124 1.52346e-123 1.59734e-122 1.64818e-121 1.67321e-120 1.67083e-119 1.64074e-118 1.58402e-117 1.50309e-116 1.4015e-115 1.2837e-114 1.1547e-113 1.01972e-112 8.8382e-112 7.51587e-111 6.26878e-110 5.12656e-109 4.10918e-108 3.22707e-107 2.4821e-106 1.86904e-105 1.37729e-104 9.92776e-104 6.99692e-103 4.81936e-102 3.24257e-101 2.13004e-100 1.3654e-99 8.53623e-99 5.20187e-98 3.08803e-97 1.78468e-96 1.0035e-95 5.48592e-95 2.91375e-94 1.50245e-93 7.51534e-93 3.64371e-92 1.71083e-91 7.77225e-91 3.41306e-90 1.44732e-89 5.92036e-89 2.33352e-88 8.85208e-88 3.22786e-87 1.12995e-86 3.79213e-86 1.21835e-85 3.7417e-85 1.09673e-84 3.0631e-84 8.13798e-84 2.05313e-83 4.9101e-83 1.11114e-82 2.37511e-82 4.78737e-82 9.08491e-82 1.62088e-81 2.7159e-81 4.27094e-81 6.30322e-81 8.73729e-81 1.13973e-80 1.4038e-80 1.64109e-80 1.83406e-80 1.97743e-80 2.0781e-80 2.14997e-80 2.20677e-80 2.25667e-80 2.30127e-80 2.33867e-80 2.36796e-80 2.39192e-80 2.41632e-80 2.44663e-80 2.48447e-80 2.5258e-80 2.56132e-80 2.57852e-80 2.56424e-80 2.50718e-80 2.40045e-80 2.24411e-80 2.0474e-80 1.82947e-80 1.61734e-80 1.44081e-80 1.32552e-80 1.28651e-80 1.32474e-80 1.4277e-80 1.57341e-80 1.73632e-80 1.89299e-80 2.02625e-80 2.12747e-80 2.19653e-80 2.2399e-80 2.26699e-80 2.28624e-80 2.30219e-80 2.31469e-80 2.32023e-80 2.31447e-80 2.29481e-80 2.26195e-80 2.22019e-80 2.17624e-80 2.13717e-80 2.10824e-80 2.09141e-80 2.08524e-80 2.08582e-80 2.08843e-80 2.08947e-80 2.08807e-80 2.08692e-80 2.0918e-80 2.10978e-80 2.14664e-80 2.20429e-80 2.279e-80 2.36136e-80 2.43828e-80 2.4968e-80 2.52862e-80 2.5336e-80 2.52101e-80 2.50773e-80 2.51365e-80 2.55508e-80 2.63795e-80 2.75348e-80 2.87871e-80 2.9825e-80 3.03529e-80 3.01893e-80 2.93289e-80 2.79444e-80 2.63277e-80 2.47958e-80 2.35996e-80 2.28724e-80 2.26277e-80 2.27916e-80 2.32364e-80 2.37993e-80 2.42896e-80 2.45056e-80 2.42731e-80 2.34953e-80 2.219e-80 2.04899e-80 1.86024e-80 1.67436e-80 1.50714e-80 1.36434e-80 1.24137e-80 1.12665e-80 1.00755e-80 8.75987e-81 7.31754e-81 5.82049e-81 4.38132e-81 3.10913e-81 2.07568e-81 1.30259e-81 7.68424e-82 4.2639e-82 2.2278e-82 1.09742e-82 5.10425e-83 2.24514e-83 9.35436e-84 3.69797e-84 1.38934e-84 4.96881e-85 1.69428e-85 5.51665e-86 1.71778e-86 5.12252e-87 1.46493e-87 4.02288e-88 1.06216e-88 2.69954e-89 6.61207e-90 1.56243e-90 3.56559e-91 7.86605e-92 1.67913e-92 3.47137e-93 6.95634e-94 1.3523e-94 2.55223e-95 4.67994e-96 8.34336e-97 1.44716e-97 2.4437e-98 4.01979e-99 6.44526e-100 1.00787e-100 1.53792e-101 2.29116e-102 3.33414e-103 4.74166e-104 6.59317e-105 8.96745e-106 1.19355e-106 1.5552e-107 1.98464e-108 2.48136e-109 3.04069e-110 3.65327e-111 4.30495e-112 4.97636e-113 5.57853e-114 0 
0 7.81946e-162 1.29319e-160 2.10837e-159 3.4003e-158 5.42424e-157 8.55785e-156 1.33521e-154 2.05989e-153 3.14197e-152 4.73777e-151 7.0617e-150 1.0403e-148 1.51448e-147 2.17861e-146 3.09631e-145 4.34716e-144 6.02843e-143 8.25626e-142 1.11656e-140 1.49086e-139 1.96512e-138 2.55666e-137 3.28262e-136 4.15877e-135 5.19802e-134 6.40868e-133 7.79261e-132 9.34343e-131 1.10449e-129 1.28699e-128 1.47794e-127 1.67237e-126 1.86428e-125 2.04695e-124 2.21325e-123 2.35607e-122 2.46879e-121 2.54578e-120 2.58284e-119 2.57756e-118 2.52958e-117 2.44064e-116 2.31452e-115 2.15677e-114 1.97428e-113 1.77481e-112 1.56639e-111 1.35682e-110 1.15313e-109 9.61219e-109 7.85611e-108 6.29331e-107 4.93943e-106 3.79694e-105 2.85745e-104 2.10442e-103 1.51604e-102 1.06787e-101 7.3511e-101 4.94318e-100 3.24535e-99 2.07917e-98 1.29914e-97 7.91241e-97 4.69454e-96 2.71167e-95 1.52391e-94 8.32648e-94 4.42013e-93 2.27801e-92 1.13889e-91 5.51892e-91 2.58999e-90 1.17604e-89 5.16185e-89 2.18784e-88 8.94522e-88 3.52412e-87 1.33624e-86 4.87032e-86 1.70415e-85 5.71671e-85 1.8359e-84 5.636e-84 1.65132e-83 4.61024e-83 1.22439e-82 3.0879e-82 7.3823e-82 1.67006e-81 3.56875e-81 7.19134e-81 1.36434e-80 2.43363e-80 4.0769e-80 6.41013e-80 9.459e-80 1.31103e-79 1.71004e-79 2.10616e-79 2.46214e-79 2.75167e-79 2.96683e-79 3.1179e-79 3.22572e-79 3.31088e-79 3.38565e-79 3.45247e-79 3.50854e-79 3.55251e-79 3.58856e-79 3.62529e-79 3.67087e-79 3.72772e-79 3.78976e-79 3.84305e-79 3.86885e-79 3.84741e-79 3.76183e-79 3.60178e-79 3.36734e-79 3.07238e-79 2.74563e-79 2.42761e-79 2.16299e-79 1.9902e-79 1.93177e-79 1.98917e-79 2.14359e-79 2.36211e-79 2.60642e-79 2.84136e-79 3.04122e-79 3.19303e-79 3.29665e-79 3.36172e-79 3.40236e-79 3.43119e-79 3.45501e-79 3.47361e-79 3.48175e-79 3.47297e-79 3.44338e-79 3.39407e-79 3.3315e-79 3.26572e-79 3.20731e-79 3.16411e-79 3.13904e-79 3.12991e-79 3.13083e-79 3.13475e-79 3.13628e-79 3.13414e-79 3.13236e-79 3.13961e-79 3.16648e-79 3.22165e-79 3.30795e-79 3.41981e-79 3.54313e-79 3.65832e-79 3.74599e-79 3.79369e-79 3.80125e-79 3.78253e-79 3.76278e-79 3.77179e-79 3.83394e-79 3.9581e-79 4.13109e-79 4.31856e-79 4.4739e-79 4.55287e-79 4.52833e-79 4.39948e-79 4.19217e-79 3.95011e-79 3.72073e-79 3.54158e-79 3.43262e-79 3.39591e-79 3.42037e-79 3.48691e-79 3.57113e-79 3.64446e-79 3.6767e-79 3.64173e-79 3.52506e-79 3.32932e-79 3.07437e-79 2.79128e-79 2.51242e-79 2.26148e-79 2.04714e-79 1.86251e-79 1.69031e-79 1.51156e-79 1.3142e-79 1.09785e-79 8.73311e-80 6.57441e-80 4.66601e-80 3.11553e-80 1.95548e-80 1.15379e-80 6.40361e-81 3.34651e-81 1.6489e-81 7.67131e-82 3.37523e-82 1.40671e-82 5.56277e-83 2.09064e-83 7.47954e-84 2.55132e-84 8.31035e-85 2.5887e-85 7.72275e-86 2.20946e-86 6.07003e-87 1.60337e-87 4.07689e-88 9.99023e-89 2.3618e-89 5.39237e-90 1.19018e-90 2.54188e-91 5.25763e-92 1.05412e-92 2.05025e-93 3.87148e-94 7.10273e-95 1.26694e-95 2.1987e-96 3.71478e-97 6.11401e-98 9.80851e-99 1.53465e-99 2.34306e-100 3.4926e-101 5.0854e-102 7.23636e-103 1.00678e-103 1.37013e-104 1.82468e-105 2.37897e-106 3.03767e-107 3.8002e-108 4.65959e-109 5.60168e-110 6.6049e-111 7.63964e-112 8.56917e-113 0 
0 1.22347e-160 2.02204e-159 3.29444e-158 5.30961e-157 8.46435e-156 1.33453e-154 2.08077e-153 3.20797e-152 4.8899e-151 7.36858e-150 1.09757e-148 1.61582e-147 2.35079e-146 3.37942e-145 4.79979e-144 6.7344e-143 9.33284e-142 1.27735e-140 1.72633e-139 2.30355e-138 3.03437e-137 3.9452e-136 5.06216e-135 6.40916e-134 8.00561e-133 9.86384e-132 1.19862e-130 1.43625e-129 1.69671e-128 1.9758e-127 2.26752e-126 2.5642e-125 2.85665e-124 3.13458e-123 3.38712e-122 3.60343e-121 3.77348e-120 3.88874e-119 3.9429e-118 3.93241e-117 3.85683e-116 3.71894e-115 3.52461e-114 3.28239e-113 3.00283e-112 2.69781e-111 2.37957e-110 2.05996e-109 1.74967e-108 1.45761e-107 1.19061e-106 9.53204e-106 7.47702e-105 5.74424e-104 4.32042e-103 3.18002e-102 2.28959e-101 1.61182e-100 1.10893e-99 7.4527e-99 4.89019e-98 3.13121e-97 1.95541e-96 1.19029e-95 7.05833e-95 4.07486e-94 2.28877e-93 1.2499e-92 6.63163e-92 3.41598e-91 1.70694e-90 8.26742e-90 3.8779e-89 1.75997e-88 7.72105e-88 3.27097e-87 1.33674e-86 5.26386e-86 1.99499e-85 7.26807e-85 2.54202e-84 8.52375e-84 2.73623e-83 8.39649e-83 2.45916e-82 6.86301e-82 1.82201e-81 4.5935e-81 1.09781e-80 2.48273e-80 5.30381e-80 1.06847e-79 2.0266e-79 3.61411e-79 6.05329e-79 9.51601e-79 1.40402e-78 1.94579e-78 2.53781e-78 3.12554e-78 3.65378e-78 4.08346e-78 4.40282e-78 4.62708e-78 4.78708e-78 4.91337e-78 5.02418e-78 5.1232e-78 5.20633e-78 5.27162e-78 5.32526e-78 5.37995e-78 5.44776e-78 5.53223e-78 5.62433e-78 5.70342e-78 5.74167e-78 5.70986e-78 5.5829e-78 5.34549e-78 4.99777e-78 4.56033e-78 4.07576e-78 3.60419e-78 3.21184e-78 2.95569e-78 2.86916e-78 2.95438e-78 3.18349e-78 3.50763e-78 3.87001e-78 4.21848e-78 4.51494e-78 4.74017e-78 4.89393e-78 4.99052e-78 5.05082e-78 5.09352e-78 5.1287e-78 5.15606e-78 5.16788e-78 5.15463e-78 5.11059e-78 5.03742e-78 4.94469e-78 4.8473e-78 4.76093e-78 4.69712e-78 4.66018e-78 4.64682e-78 4.64828e-78 4.65411e-78 4.65634e-78 4.65308e-78 4.65037e-78 4.66102e-78 4.70076e-78 4.78242e-78 4.9102e-78 5.07584e-78 5.25848e-78 5.4291e-78 5.55898e-78 5.62973e-78 5.64107e-78 5.61353e-78 5.5845e-78 5.59805e-78 5.69027e-78 5.87424e-78 6.13046e-78 6.40803e-78 6.63798e-78 6.75484e-78 6.71842e-78 6.52757e-78 6.22057e-78 5.8621e-78 5.52236e-78 5.25699e-78 5.09551e-78 5.04103e-78 5.07715e-78 5.1756e-78 5.30022e-78 5.40871e-78 5.45629e-78 5.40428e-78 5.23118e-78 4.94084e-78 4.56269e-78 4.14274e-78 3.72896e-78 3.35648e-78 3.03825e-78 2.76408e-78 2.50839e-78 2.24307e-78 1.95019e-78 1.62921e-78 1.29608e-78 9.75806e-79 6.92637e-79 4.62546e-79 2.90369e-79 1.71358e-79 9.51243e-80 4.97229e-80 2.45055e-80 1.14039e-80 5.01887e-81 2.09235e-81 8.2767e-82 3.11163e-82 1.11361e-82 3.79996e-83 1.23821e-83 3.85855e-84 1.15156e-84 3.29594e-85 9.05875e-86 2.39386e-86 6.08959e-87 1.4929e-87 3.53101e-88 8.06568e-89 1.78108e-89 3.80572e-90 7.87566e-91 1.57981e-91 3.07428e-92 5.80817e-93 1.06614e-93 1.90272e-94 3.30381e-95 5.58492e-96 9.197e-97 1.47626e-97 2.31105e-98 3.53041e-99 5.26545e-100 7.67111e-101 1.0922e-101 1.52043e-102 2.07035e-103 2.75881e-104 3.59897e-105 4.59817e-106 5.75583e-107 7.06167e-108 8.49449e-109 1.00218e-109 1.15988e-110 1.30178e-111 0 
0 1.89284e-159 3.12623e-158 5.09005e-157 8.19808e-156 1.30603e-154 2.05778e-153 3.20631e-152 4.93996e-151 7.52497e-150 1.13319e-148 1.6868e-147 2.48163e-146 3.60805e-145 5.18341e-144 7.35717e-143 1.03158e-141 1.42868e-140 1.9541e-139 2.63924e-138 3.51942e-137 4.63297e-136 6.01977e-135 7.7191e-134 9.7668e-133 1.21918e-131 1.5012e-130 1.82305e-129 2.18307e-128 2.57734e-127 2.99938e-126 3.44005e-125 3.88768e-124 4.32835e-123 4.74649e-122 5.12569e-121 5.44963e-120 5.70325e-119 5.87381e-118 5.95194e-117 5.93245e-116 5.81485e-115 5.60353e-114 5.3075e-113 4.93974e-112 4.5163e-111 4.05509e-110 3.5746e-109 3.09264e-108 2.62522e-107 2.18573e-106 1.7843e-105 1.42767e-104 1.11922e-103 8.59348e-103 6.45968e-102 4.75187e-101 3.41936e-100 2.40578e-99 1.65424e-98 1.11113e-97 7.28677e-97 4.66318e-96 2.91051e-95 1.77071e-94 1.04945e-93 6.05534e-93 3.39936e-92 1.85541e-91 9.83922e-91 5.0656e-90 2.52995e-89 1.22475e-88 5.74191e-88 2.60466e-87 1.14212e-86 4.83622e-86 1.97548e-85 7.77551e-85 2.94556e-84 1.07264e-83 3.74995e-83 1.25688e-82 4.03307e-82 1.2371e-81 3.62181e-81 1.01039e-80 2.68145e-80 6.75791e-80 1.61456e-79 3.65024e-79 7.79565e-79 1.57004e-78 2.9772e-78 5.30818e-78 8.88898e-78 1.39715e-77 2.06113e-77 2.85616e-77 3.7249e-77 4.58738e-77 5.3626e-77 5.99328e-77 6.46211e-77 6.79134e-77 7.02617e-77 7.21138e-77 7.3738e-77 7.51892e-77 7.64082e-77 7.73672e-77 7.81563e-77 7.89616e-77 7.99593e-77 8.12006e-77 8.2553e-77 8.37136e-77 8.42748e-77 8.38078e-77 8.19452e-77 7.84623e-77 7.33618e-77 6.69455e-77 5.98386e-77 5.29228e-77 4.71696e-77 4.34142e-77 4.21466e-77 4.33982e-77 4.67599e-77 5.15152e-77 5.68312e-77 6.19431e-77 6.62923e-77 6.95969e-77 7.18535e-77 7.32713e-77 7.41562e-77 7.47817e-77 7.52956e-77 7.56938e-77 7.58635e-77 7.56658e-77 7.50174e-77 7.39435e-77 7.25843e-77 7.11585e-77 6.98953e-77 6.89633e-77 6.84251e-77 6.82316e-77 6.82545e-77 6.83402e-77 6.83722e-77 6.83235e-77 6.82824e-77 6.84372e-77 6.90183e-77 7.02137e-77 7.20848e-77 7.45106e-77 7.71857e-77 7.9685e-77 8.15882e-77 8.26259e-77 8.27941e-77 8.23934e-77 8.19713e-77 8.21729e-77 8.35261e-77 8.62221e-77 8.99751e-77 9.40397e-77 9.74062e-77 9.91162e-77 9.85818e-77 9.57862e-77 9.12898e-77 8.60396e-77 8.10634e-77 7.71756e-77 7.4809e-77 7.40093e-77 7.45368e-77 7.59773e-77 7.78012e-77 7.93884e-77 8.00831e-77 7.93179e-77 7.67777e-77 7.25187e-77 6.69715e-77 6.08102e-77 5.47379e-77 4.92701e-77 4.45972e-77 4.05707e-77 3.68159e-77 3.29208e-77 2.86224e-77 2.39123e-77 1.90242e-77 1.43245e-77 1.01689e-77 6.79185e-78 4.26437e-78 2.51703e-78 1.39754e-78 7.30675e-79 3.60192e-79 1.67662e-79 7.38085e-80 3.07795e-80 1.21792e-80 4.58024e-81 1.63976e-81 5.59731e-82 1.82455e-82 5.68787e-83 1.69818e-83 4.86242e-84 1.33698e-84 3.5346e-85 8.99539e-86 2.20627e-86 5.22066e-87 1.19308e-87 2.63585e-88 5.63487e-89 1.16667e-89 2.34144e-90 4.55869e-91 8.61706e-92 1.58256e-92 2.82585e-93 4.9093e-94 8.30335e-95 1.3681e-95 2.19721e-96 3.44158e-97 5.26035e-98 7.84998e-99 1.14429e-99 1.63014e-100 2.27059e-101 3.09362e-102 4.12474e-103 5.38401e-104 6.88284e-105 8.62078e-106 1.05829e-106 1.27377e-107 1.5037e-108 1.74137e-109 1.95555e-110 0 
0 2.89527e-158 4.77868e-157 7.77532e-156 1.25146e-154 1.99237e-153 3.13709e-152 4.88478e-151 7.52098e-150 1.1449e-148 1.72297e-147 2.56303e-146 3.76827e-145 5.4751e-144 7.8605e-143 1.11496e-141 1.56232e-140 2.16231e-139 2.95561e-138 3.98931e-137 5.31628e-136 6.99384e-135 9.08147e-134 1.16376e-132 1.47153e-131 1.83572e-130 2.25893e-129 2.74147e-128 3.28078e-127 3.87084e-126 4.50183e-125 5.15999e-124 5.82775e-123 6.48426e-122 7.10623e-121 7.66915e-120 8.14877e-119 8.52272e-118 8.77218e-117 8.88338e-116 8.84885e-115 8.66814e-114 8.34803e-113 7.9022e-112 7.3502e-111 6.71608e-110 6.02661e-109 5.30933e-108 4.59074e-107 3.8946e-106 3.24067e-105 2.64394e-104 2.11426e-103 1.65651e-102 1.27115e-101 9.54965e-101 7.0209e-100 5.04922e-99 3.55051e-98 2.44e-97 1.638e-96 1.0736e-95 6.86673e-95 4.28351e-94 2.60461e-93 1.54285e-92 8.89752e-92 4.99227e-91 2.72342e-90 1.44348e-89 7.42776e-89 3.70782e-88 1.79405e-87 8.4068e-87 3.81165e-86 1.67057e-85 7.07056e-85 2.88681e-84 1.13573e-83 4.30051e-83 1.56536e-82 5.47016e-82 1.83267e-81 5.87828e-81 1.80239e-80 5.27473e-80 1.47097e-79 3.90237e-79 9.83157e-79 2.34813e-78 5.3071e-78 1.13309e-77 2.28143e-77 4.32513e-77 7.70979e-77 1.29082e-76 2.02856e-76 2.9922e-76 4.14597e-76 5.40664e-76 6.65827e-76 7.78337e-76 8.69882e-76 9.37944e-76 9.85741e-76 1.01982e-75 1.04669e-75 1.07023e-75 1.09126e-75 1.10894e-75 1.12286e-75 1.13435e-75 1.14607e-75 1.16059e-75 1.17863e-75 1.19826e-75 1.21511e-75 1.22325e-75 1.21647e-75 1.18944e-75 1.13892e-75 1.06493e-75 9.71864e-76 8.68789e-76 7.68492e-76 6.85065e-76 6.3062e-76 6.1226e-76 6.30438e-76 6.79217e-76 7.48207e-76 8.25324e-76 8.99481e-76 9.62576e-76 1.01052e-75 1.04327e-75 1.06385e-75 1.07669e-75 1.08576e-75 1.09318e-75 1.09891e-75 1.10132e-75 1.0984e-75 1.08896e-75 1.07337e-75 1.05367e-75 1.03303e-75 1.01476e-75 1.0013e-75 9.93546e-76 9.90778e-76 9.91129e-76 9.92377e-76 9.92832e-76 9.9211e-76 9.91495e-76 9.9372e-76 1.00212e-75 1.01943e-75 1.04652e-75 1.08165e-75 1.1204e-75 1.1566e-75 1.18418e-75 1.19923e-75 1.2017e-75 1.19593e-75 1.18986e-75 1.19283e-75 1.21246e-75 1.25153e-75 1.30589e-75 1.36475e-75 1.41349e-75 1.43823e-75 1.43048e-75 1.38998e-75 1.32486e-75 1.24882e-75 1.17674e-75 1.12042e-75 1.08612e-75 1.07452e-75 1.08213e-75 1.10297e-75 1.12937e-75 1.15233e-75 1.16236e-75 1.15123e-75 1.11437e-75 1.05259e-75 9.72115e-76 8.82723e-76 7.94601e-76 7.15229e-76 6.47373e-76 5.88895e-76 5.34367e-76 4.77819e-76 4.15433e-76 3.47082e-76 2.76151e-76 2.07952e-76 1.47642e-76 9.86244e-77 6.19329e-77 3.65624e-77 2.03046e-77 1.06182e-77 5.23555e-78 2.43765e-78 1.0734e-78 4.47754e-79 1.77225e-79 6.66708e-80 2.38766e-80 8.15309e-81 2.65861e-81 8.29113e-82 2.47638e-82 7.09349e-83 1.95124e-83 5.16073e-84 1.31395e-84 3.22412e-85 7.63267e-86 1.74511e-86 3.85725e-87 8.24992e-88 1.70893e-88 3.43143e-89 6.68422e-90 1.26413e-90 2.32282e-91 4.14983e-92 7.21324e-93 1.22066e-93 2.01231e-94 3.23357e-95 5.06766e-96 7.75006e-97 1.15718e-97 1.68776e-98 2.40573e-99 3.3528e-100 4.57072e-101 6.09768e-102 7.96391e-103 1.01869e-103 1.27666e-104 1.56815e-105 1.88858e-106 2.23081e-107 2.58495e-108 2.90459e-109 0 