# vtk DataFile Version 3.0
Gray-Scott Simulation Output
ASCII
DATASET STRUCTURED_POINTS
DIMENSIONS 256 256 1
SPACING 1.0 1.0 1.0
ORIGIN 0 0 0
POINT_DATA 65536
SCALARS u double
LOOKUP_TABLE default
0 0 0 0 0 0 0 0 0 0 0 0 0 0 0 0 0 0 0 0 0 0 0 0 0 0 0 0 0 0 0 0 0 0 0 0 0 0 0 0 0 0 0 0 0 0 0 0 0 0 0 0 0 0 0 0 0 0 0 0 0 0 0 0 0 0 0 0 0 0 0 0 0 0 0 0 0 0 0 0 0 0 0 0 0 0 0 0 0 0 0 0 0 0 0 0 0 0 0 0 0 0 0 0 0 0 0 0 0 0 0 0 0 0 0 0 0 0 0 0 0 0 0 0 0 0 0 0 0 0 0 0 0 0 0 0 0 0 0 0 0 0 0 0 0 0 0 0 0 0 0 0 0 0 0 0 0 0 0 0 0 0 0 0 0 0 0 0 0 0 0 0 0 0 0 0 0 0 0 0 0 0 0 0 0 0 0 0 0 0 0 0 0 0 0 0 0 0 0 0 0 0 0 0 0 0 0 0 0 0 0 0 0 0 0 0 0 0 0 0 0 0 0 0 0 0 0 0 0 0 0 0 0 0 0 0 0 0 0 0 0 0 0 0 0 0 0 0 0 0 0 0 0 0 0 0 
0 1.05087e-74 3.49838e-74 1.05372e-73 3.11965e-73 9.15445e-73 2.66485e-72 7.6957e-72 2.20466e-71 6.26511e-71 1.76599e-70 4.93741e-70 1.3691e-69 3.7651e-69 1.02682e-68 2.77696e-68 7.4469e-68 1.9801e-67 5.22011e-67 1.36436e-66 3.53516e-66 9.08017e-66 2.31184e-65 5.83409e-65 1.4592e-64 3.61704e-64 8.88514e-64 2.16281e-63 5.21659e-63 1.24664e-62 2.95158e-62 6.92304e-62 1.60856e-61 3.70211e-61 8.43916e-61 1.90528e-60 4.25986e-60 9.43147e-60 2.06766e-59 4.48809e-59 9.64484e-59 2.05186e-58 4.32101e-58 9.00692e-58 1.85817e-57 3.79385e-57 7.66525e-57 1.53246e-56 3.03133e-56 5.93231e-56 1.14849e-55 2.19941e-55 4.16606e-55 7.8046e-55 1.44592e-54 2.64894e-54 4.79841e-54 8.59376e-54 1.52158e-53 2.66315e-53 4.60735e-53 7.87815e-53 1.33132e-52 2.22324e-52 3.66865e-52 5.98145e-52 9.63505e-52 1.53326e-51 2.41025e-51 3.7425e-51 5.73965e-51 8.69371e-51 1.30045e-50 1.921e-50 2.80209e-50 4.03588e-50 5.73954e-50 8.05902e-50 1.11723e-49 1.52913e-49 2.06625e-49 2.75649e-49 3.63051e-49 4.72086e-49 6.06081e-49 7.68269e-49 9.61598e-49 1.18851e-48 1.45071e-48 1.74894e-48 2.08277e-48 2.45048e-48 2.84893e-48 3.27361e-48 3.71869e-48 4.17726e-48 4.64159e-48 5.10351e-48 5.55477e-48 5.98747e-48 6.39448e-48 6.76971e-48 7.10843e-48 7.40736e-48 7.66475e-48 7.88028e-48 8.05492e-48 8.19071e-48 8.29045e-48 8.35745e-48 8.39526e-48 8.40748e-48 8.39753e-48 8.36863e-48 8.32373e-48 8.26554e-48 8.19659e-48 8.11932e-48 8.03614e-48 7.94951e-48 7.86197e-48 7.77612e-48 7.69458e-48 7.61987e-48 7.55436e-48 7.50006e-48 7.45858e-48 7.43096e-48 7.41763e-48 7.41837e-48 7.43233e-48 7.45808e-48 7.49373e-48 7.53703e-48 7.58556e-48 7.63686e-48 7.68857e-48 7.73857e-48 7.7851e-48 7.82681e-48 7.86278e-48 7.89258e-48 7.91618e-48 7.93397e-48 7.94663e-48 7.95511e-48 7.96054e-48 7.96414e-48 7.96716e-48 7.97083e-48 7.97629e-48 7.98456e-48 7.9965e-48 8.0128e-48 8.03396e-48 8.06029e-48 8.09191e-48 8.12873e-48 8.17051e-48 8.21681e-48 8.26705e-48 8.32049e-48 8.37626e-48 8.43338e-48 8.49073e-48 8.54714e-48 8.60136e-48 8.65211e-48 8.69813e-48 8.7382e-48 8.77118e-48 8.7961e-48 8.81214e-48 8.81872e-48 8.81547e-48 8.80227e-48 8.7792e-48 8.74654e-48 8.70469e-48 8.65409e-48 8.59518e-48 8.5283e-48 8.45362e-48 8.37108e-48 8.28034e-48 8.18079e-48 8.07149e-48 7.95123e-48 7.81854e-48 7.67179e-48 7.50926e-48 7.32919e-48 7.12996e-48 6.91019e-48 6.66886e-48 6.40544e-48 6.12001e-48 5.81339e-48 5.48713e-48 5.1436e-48 4.78595e-48 4.41801e-48 4.04418e-48 3.66925e-48 3.29821e-48 2.93599e-48 2.58729e-48 2.25631e-48 1.9466e-48 1.66095e-48 1.4013e-48 1.16869e-48 9.63329e-49 7.84663e-49 6.31481e-49 5.02054e-49 3.94282e-49 3.05838e-49 2.34301e-49 1.77268e-49 1.32448e-49 9.77242e-50 7.12029e-50 5.12305e-50 3.63998e-50 2.55395e-50 1.76962e-50 1.21092e-50 8.18333e-51 5.46193e-51 3.60066e-51 2.34456e-51 1.50802e-51 9.58179e-52 6.01458e-52 3.73003e-52 2.28559e-52 1.38386e-52 8.27993e-53 4.89591e-53 2.86118e-53 1.6527e-53 9.43664e-54 5.32655e-54 2.97246e-54 1.64006e-54 8.94775e-55 4.82736e-55 2.57557e-55 1.35894e-55 7.08873e-56 3.65056e-56 1.84453e-56 8.90097e-57 3.58277e-57 0 
0 3.49231e-74 1.16283e-73 3.50334e-73 1.03747e-72 3.04522e-72 8.86702e-72 2.56138e-71 7.33989e-71 2.08642e-70 5.8829e-70 1.64525e-69 4.56354e-69 1.25539e-68 3.4248e-68 9.2651e-68 2.48541e-67 6.61084e-67 1.74341e-66 4.55826e-66 1.1815e-65 3.03581e-65 7.73209e-65 1.95198e-64 4.88405e-64 1.21112e-63 2.97623e-63 7.24758e-63 1.74879e-62 4.1809e-62 9.9029e-62 2.32374e-61 5.40149e-61 1.24369e-60 2.83629e-60 6.40622e-60 1.43296e-59 3.17405e-59 6.96163e-59 1.5118e-58 3.25034e-58 6.91807e-58 1.45757e-57 3.03966e-57 6.27398e-57 1.28158e-56 2.59061e-56 5.18173e-56 1.02549e-55 2.00786e-55 3.88908e-55 7.4514e-55 1.41211e-54 2.6467e-54 4.90578e-54 8.99174e-54 1.62958e-53 2.91989e-53 5.17227e-53 9.05696e-53 1.5676e-52 2.68165e-52 4.53367e-52 7.57429e-52 1.25038e-51 2.03949e-51 3.28655e-51 5.23201e-51 8.22762e-51 1.27799e-50 1.96063e-50 2.97065e-50 4.44498e-50 6.56786e-50 9.58275e-50 1.38054e-49 1.96371e-49 2.75779e-49 3.82374e-49 5.23414e-49 7.07339e-49 9.43694e-49 1.24296e-48 1.61626e-48 2.07495e-48 2.63003e-48 3.2915e-48 4.06762e-48 4.96406e-48 5.98318e-48 7.12332e-48 8.37831e-48 9.73717e-48 1.11841e-47 1.26991e-47 1.42581e-47 1.58346e-47 1.74004e-47 1.89272e-47 2.03883e-47 2.17592e-47 2.30196e-47 2.41534e-47 2.515e-47 2.60039e-47 2.67145e-47 2.72856e-47 2.77249e-47 2.80423e-47 2.82495e-47 2.83591e-47 2.83836e-47 2.83348e-47 2.82238e-47 2.80607e-47 2.78546e-47 2.7614e-47 2.73469e-47 2.70614e-47 2.67656e-47 2.64677e-47 2.61764e-47 2.59002e-47 2.56476e-47 2.54263e-47 2.5243e-47 2.5103e-47 2.50097e-47 2.49645e-47 2.49666e-47 2.50132e-47 2.50993e-47 2.52186e-47 2.53636e-47 2.55261e-47 2.56979e-47 2.5871e-47 2.60383e-47 2.61939e-47 2.63333e-47 2.64534e-47 2.65528e-47 2.66314e-47 2.66905e-47 2.67324e-47 2.67603e-47 2.6778e-47 2.67896e-47 2.67993e-47 2.68113e-47 2.68293e-47 2.68567e-47 2.68965e-47 2.69509e-47 2.70217e-47 2.71099e-47 2.72158e-47 2.73392e-47 2.74792e-47 2.76345e-47 2.78029e-47 2.79822e-47 2.81693e-47 2.83609e-47 2.85533e-47 2.87426e-47 2.89246e-47 2.9095e-47 2.92496e-47 2.93843e-47 2.94952e-47 2.95791e-47 2.96334e-47 2.9656e-47 2.96458e-47 2.96023e-47 2.9526e-47 2.94178e-47 2.92792e-47 2.91116e-47 2.89167e-47 2.86958e-47 2.84493e-47 2.81773e-47 2.78788e-47 2.75515e-47 2.71925e-47 2.67975e-47 2.63617e-47 2.58794e-47 2.53445e-47 2.4751e-47 2.4093e-47 2.33657e-47 2.25651e-47 2.16891e-47 2.07377e-47 1.97131e-47 1.86204e-47 1.74673e-47 1.62644e-47 1.50244e-47 1.37622e-47 1.24943e-47 1.12377e-47 1.00092e-47 8.82508e-48 7.69985e-48 6.6459e-48 5.67296e-48 4.78784e-48 3.99434e-48 3.29337e-48 2.68319e-48 2.1598e-48 1.7174e-48 1.3489e-48 1.04641e-48 8.01689e-49 6.06554e-49 4.53185e-49 3.34359e-49 2.43599e-49 1.75251e-49 1.24501e-49 8.73415e-50 6.05076e-50 4.13958e-50 2.79689e-50 1.86631e-50 1.23e-50 8.00689e-51 5.1485e-51 3.27027e-51 2.05211e-51 1.27221e-51 7.79274e-52 4.71656e-52 2.82096e-52 1.66738e-52 9.74037e-53 5.62407e-53 3.20992e-53 1.8111e-53 1.01025e-53 5.5717e-54 3.03846e-54 1.63856e-54 8.73845e-55 4.60862e-55 2.40297e-55 1.23695e-55 6.24735e-56 3.01361e-56 1.21269e-56 0 
0 1.04969e-73 3.49603e-73 1.05358e-72 3.12105e-72 9.16395e-72 2.66922e-71 7.71306e-71 2.21101e-70 6.2872e-70 1.77338e-69 4.96135e-69 1.37667e-68 3.78853e-68 1.03394e-67 2.79822e-67 7.50939e-67 1.9982e-66 5.27183e-66 1.37894e-65 3.57574e-65 9.19172e-65 2.34214e-64 5.91543e-64 1.48078e-63 3.67367e-63 9.03205e-63 2.2005e-62 5.31223e-62 1.27065e-61 3.01118e-61 7.06939e-61 1.64411e-60 3.78754e-60 8.64225e-60 1.95304e-59 4.37095e-59 9.6871e-59 2.12584e-58 4.61909e-58 9.93657e-58 2.11611e-57 4.46098e-57 9.30846e-57 1.92241e-56 3.92919e-56 7.94717e-56 1.59053e-55 3.14957e-55 6.17035e-55 1.19586e-54 2.29259e-54 4.34724e-54 8.15274e-54 1.51203e-53 2.77299e-53 5.02841e-53 9.01509e-53 1.59783e-52 2.79945e-52 4.84802e-52 8.29788e-52 1.40361e-51 2.34619e-51 3.87511e-51 6.32376e-51 1.01954e-50 1.6238e-50 2.55464e-50 3.96978e-50 6.09273e-50 9.23496e-50 1.38232e-49 2.04319e-49 2.98202e-49 4.29725e-49 6.11406e-49 8.58837e-49 1.19102e-48 1.63059e-48 2.20384e-48 2.94049e-48 3.87316e-48 5.03642e-48 6.46548e-48 8.19442e-48 1.02541e-47 1.26697e-47 1.54585e-47 1.86271e-47 2.21695e-47 2.60655e-47 3.028e-47 3.47629e-47 3.94505e-47 4.42676e-47 4.91304e-47 5.3951e-47 5.86415e-47 6.31181e-47 6.7306e-47 7.11423e-47 7.45789e-47 7.75842e-47 8.01428e-47 8.22552e-47 8.39353e-47 8.52083e-47 8.61074e-47 8.66707e-47 8.69383e-47 8.69499e-47 8.67432e-47 8.63526e-47 8.58094e-47 8.51416e-47 8.43748e-47 8.35333e-47 8.2641e-47 8.17217e-47 8.08004e-47 7.99023e-47 7.90531e-47 7.82777e-47 7.75993e-47 7.70378e-47 7.66089e-47 7.63229e-47 7.61837e-47 7.61887e-47 7.6329e-47 7.65898e-47 7.69516e-47 7.73914e-47 7.78844e-47 7.84052e-47 7.89299e-47 7.94369e-47 7.99082e-47 8.033e-47 8.06931e-47 8.09931e-47 8.12299e-47 8.14074e-47 8.15327e-47 8.16156e-47 8.16676e-47 8.17012e-47 8.17292e-47 8.17641e-47 8.18175e-47 8.18998e-47 8.20199e-47 8.21846e-47 8.2399e-47 8.26664e-47 8.29878e-47 8.33624e-47 8.37877e-47 8.42593e-47 8.47711e-47 8.53158e-47 8.58845e-47 8.6467e-47 8.70521e-47 8.76279e-47 8.81815e-47 8.87001e-47 8.91707e-47 8.95809e-47 8.99192e-47 9.01757e-47 9.03423e-47 9.0413e-47 9.03844e-47 9.02555e-47 9.00275e-47 8.97038e-47 8.92888e-47 8.87877e-47 8.82055e-47 8.75465e-47 8.68128e-47 8.60045e-47 8.51187e-47 8.41492e-47 8.30866e-47 8.19182e-47 8.06286e-47 7.92e-47 7.76135e-47 7.58493e-47 7.38889e-47 7.17156e-47 6.93164e-47 6.66832e-47 6.38143e-47 6.07157e-47 5.74014e-47 5.38944e-47 5.02262e-47 4.64359e-47 4.25695e-47 3.86774e-47 3.48127e-47 3.10283e-47 2.7375e-47 2.38986e-47 2.06384e-47 1.76255e-47 1.4882e-47 1.24203e-47 1.0244e-47 8.34842e-48 6.72153e-48 5.34574e-48 4.19931e-48 3.25793e-48 2.49615e-48 1.88861e-48 1.41104e-48 1.041e-48 7.58355e-49 5.45511e-49 3.87478e-49 2.71776e-49 1.88238e-49 1.2875e-49 8.69655e-50 5.80135e-50 3.8222e-50 2.48727e-50 1.59876e-50 1.01513e-50 6.36746e-51 3.9459e-51 2.41597e-51 1.46162e-51 8.73793e-52 5.16232e-52 3.01424e-52 1.73957e-52 9.92364e-53 5.59629e-53 3.12007e-53 1.71989e-53 9.37433e-54 5.05265e-54 2.69317e-54 1.41961e-54 7.39805e-55 3.8062e-55 1.9214e-55 9.26432e-56 3.72679e-56 0 
0 3.10097e-73 1.03305e-72 3.11425e-72 9.22845e-72 2.71056e-71 7.89791e-71 2.28301e-70 6.54682e-70 1.86233e-69 5.2549e-69 1.47072e-68 4.08255e-68 1.12394e-67 3.06865e-67 8.30831e-67 2.23059e-66 5.938e-66 1.5673e-65 4.10138e-65 1.06401e-64 2.7364e-64 6.97587e-64 1.7627e-63 4.41464e-63 1.09577e-62 2.69539e-62 6.57018e-62 1.58693e-61 3.7978e-61 9.00479e-61 2.11521e-60 4.92198e-60 1.1345e-59 2.5901e-59 5.8566e-59 1.31148e-58 2.90823e-58 6.38587e-58 1.38836e-57 2.98841e-57 6.368e-57 1.34325e-56 2.80459e-56 5.79567e-56 1.1853e-55 2.39886e-55 4.804e-55 9.51884e-55 1.86601e-54 3.61872e-54 6.9418e-54 1.31713e-53 2.47166e-53 4.58684e-53 8.41721e-53 1.52727e-52 2.73979e-52 4.85888e-52 8.51797e-52 1.47598e-51 2.52773e-51 4.27812e-51 7.15498e-51 1.1824e-50 1.93055e-50 3.11407e-50 4.96214e-50 7.81038e-50 1.21424e-49 1.86439e-49 2.82707e-49 4.23328e-49 6.25938e-49 9.1385e-49 1.3173e-48 1.87474e-48 2.63406e-48 3.65361e-48 5.00288e-48 6.76256e-48 9.02382e-48 1.18866e-47 1.54567e-47 1.98418e-47 2.51456e-47 3.14618e-47 3.88665e-47 4.74106e-47 5.71122e-47 6.79504e-47 7.98604e-47 9.27311e-47 1.06406e-46 1.20686e-46 1.35337e-46 1.50102e-46 1.64708e-46 1.78886e-46 1.9238e-46 2.04962e-46 2.16443e-46 2.2668e-46 2.35581e-46 2.43105e-46 2.4926e-46 2.54096e-46 2.57696e-46 2.60167e-46 2.61631e-46 2.62215e-46 2.62044e-46 2.61234e-46 2.59892e-46 2.58114e-46 2.55982e-46 2.53575e-46 2.50963e-46 2.48215e-46 2.45403e-46 2.42597e-46 2.39872e-46 2.37302e-46 2.3496e-46 2.32914e-46 2.31221e-46 2.29929e-46 2.29066e-46 2.28644e-46 2.28655e-46 2.2907e-46 2.29847e-46 2.30925e-46 2.32237e-46 2.33707e-46 2.3526e-46 2.36824e-46 2.38334e-46 2.39737e-46 2.40992e-46 2.42071e-46 2.42961e-46 2.43662e-46 2.44185e-46 2.44553e-46 2.44795e-46 2.44945e-46 2.4504e-46 2.45119e-46 2.45218e-46 2.45374e-46 2.45617e-46 2.45973e-46 2.46462e-46 2.47101e-46 2.47898e-46 2.48857e-46 2.49976e-46 2.51245e-46 2.52654e-46 2.54183e-46 2.55811e-46 2.5751e-46 2.59252e-46 2.61001e-46 2.62723e-46 2.64379e-46 2.65931e-46 2.6734e-46 2.68569e-46 2.69584e-46 2.70355e-46 2.70857e-46 2.71075e-46 2.70998e-46 2.70622e-46 2.69954e-46 2.69003e-46 2.67783e-46 2.66312e-46 2.64605e-46 2.62676e-46 2.60533e-46 2.58177e-46 2.556e-46 2.52785e-46 2.49702e-46 2.46315e-46 2.42575e-46 2.38428e-46 2.33815e-46 2.28673e-46 2.22944e-46 2.16572e-46 2.09514e-46 2.01742e-46 1.93245e-46 1.84037e-46 1.74156e-46 1.6367e-46 1.5267e-46 1.41275e-46 1.29624e-46 1.17869e-46 1.06173e-46 9.46995e-47 8.36055e-47 7.30335e-47 6.31061e-47 5.3921e-47 4.55484e-47 3.80293e-47 3.13768e-47 2.55782e-47 2.05987e-47 1.63857e-47 1.28736e-47 9.98866e-48 7.65352e-48 5.79081e-48 4.32638e-48 3.19161e-48 2.32481e-48 1.67209e-48 1.18749e-48 8.32735e-49 5.76636e-49 3.94301e-49 2.66259e-49 1.77563e-49 1.16947e-49 7.60752e-50 4.88808e-50 3.10244e-50 1.94521e-50 1.20492e-50 7.37405e-51 4.4591e-51 2.66448e-51 1.57338e-51 9.18225e-52 5.29651e-52 3.0199e-52 1.70212e-52 9.48465e-53 5.22541e-53 2.84657e-53 1.53342e-53 8.16886e-54 4.30353e-54 2.24145e-54 1.15256e-54 5.8151e-55 2.80251e-55 1.12699e-55 0 
0 9.07949e-73 3.02554e-72 9.12374e-72 2.70456e-71 7.94655e-71 2.31626e-70 6.69795e-70 1.92143e-69 5.46785e-69 1.54345e-68 4.32145e-68 1.20007e-67 3.30519e-67 9.02776e-67 2.44529e-66 6.56789e-66 1.7492e-65 4.61899e-65 1.20927e-64 3.13865e-64 8.07571e-64 2.05973e-63 5.20719e-63 1.30477e-62 3.24025e-62 7.97454e-62 1.94486e-61 4.7e-61 1.1254e-60 2.66984e-60 6.27487e-60 1.46095e-59 3.36936e-59 7.69678e-59 1.74137e-58 3.90177e-58 8.65743e-58 1.90213e-57 4.13796e-57 8.91232e-57 1.9003e-56 4.01095e-56 8.37975e-56 1.73277e-55 3.54601e-55 7.18116e-55 1.43903e-54 2.85318e-54 5.59677e-54 1.08607e-53 2.08475e-53 3.95813e-53 7.43236e-53 1.38016e-52 2.5343e-52 4.60128e-52 8.25944e-52 1.46567e-51 2.571e-51 4.45766e-51 7.63861e-51 1.29356e-50 2.16466e-50 3.57919e-50 5.84705e-50 9.43648e-50 1.50443e-49 2.36911e-49 3.68485e-49 5.66035e-49 8.58669e-49 1.28629e-48 1.90262e-48 2.77872e-48 4.00673e-48 5.70384e-48 8.01601e-48 1.11211e-47 1.52307e-47 2.05907e-47 2.74784e-47 3.61979e-47 4.70704e-47 6.0422e-47 7.65667e-47 9.57866e-47 1.18309e-46 1.44283e-46 1.73757e-46 2.06659e-46 2.42783e-46 2.81781e-46 3.23165e-46 3.66321e-46 4.10529e-46 4.54996e-46 4.98891e-46 5.41391e-46 5.81722e-46 6.19197e-46 6.5325e-46 6.8346e-46 7.09566e-46 7.31461e-46 7.49188e-46 7.62921e-46 7.7293e-46 7.79562e-46 7.83201e-46 7.84244e-46 7.83081e-46 7.80073e-46 7.75543e-46 7.69781e-46 7.63038e-46 7.55539e-46 7.47493e-46 7.39101e-46 7.30563e-46 7.22087e-46 7.13884e-46 7.06169e-46 6.99153e-46 6.93031e-46 6.87973e-46 6.84111e-46 6.8153e-46 6.80261e-46 6.80278e-46 6.81499e-46 6.8379e-46 6.86976e-46 6.90853e-46 6.95198e-46 6.99787e-46 7.04407e-46 7.08866e-46 7.13006e-46 7.16705e-46 7.19882e-46 7.22499e-46 7.24555e-46 7.26087e-46 7.27157e-46 7.27854e-46 7.2828e-46 7.28545e-46 7.28764e-46 7.29047e-46 7.29496e-46 7.30205e-46 7.3125e-46 7.32693e-46 7.34579e-46 7.36935e-46 7.39771e-46 7.4308e-46 7.46839e-46 7.51009e-46 7.55538e-46 7.60359e-46 7.65395e-46 7.70554e-46 7.7574e-46 7.80844e-46 7.85756e-46 7.90359e-46 7.9454e-46 7.9819e-46 8.01207e-46 8.03504e-46 8.0501e-46 8.05674e-46 8.05469e-46 8.04389e-46 8.02449e-46 7.99682e-46 7.96134e-46 7.91857e-46 7.86904e-46 7.81317e-46 7.75124e-46 7.68331e-46 7.60919e-46 7.52835e-46 7.43997e-46 7.34291e-46 7.23572e-46 7.11676e-46 6.98415e-46 6.83599e-46 6.67037e-46 6.48554e-46 6.28007e-46 6.05294e-46 5.80371e-46 5.53265e-46 5.24081e-46 4.93006e-46 4.60312e-46 4.2635e-46 3.91533e-46 3.56327e-46 3.21226e-46 2.86727e-46 2.53312e-46 2.21421e-46 1.91434e-46 1.63656e-46 1.38309e-46 1.15524e-46 9.53492e-47 7.77516e-47 6.26307e-47 4.98307e-47 3.91558e-47 3.03843e-47 2.32824e-47 1.76162e-47 1.31609e-47 9.70824e-48 7.07087e-48 5.08492e-48 3.61059e-48 2.53142e-48 1.75249e-48 1.19802e-48 8.08748e-49 5.39163e-49 3.54983e-49 2.30834e-49 1.48261e-49 9.40614e-50 5.89504e-50 3.64991e-50 2.2327e-50 1.34947e-50 8.05959e-51 4.75681e-51 2.77463e-51 1.59962e-51 9.11557e-52 5.13506e-52 2.8598e-52 1.57467e-52 8.57327e-53 4.61569e-53 2.45748e-53 1.2939e-53 6.73529e-54 3.46133e-54 1.74542e-54 8.4077e-55 3.37982e-55 0 
0 2.63712e-72 8.78999e-72 2.65156e-71 7.86279e-71 2.31107e-70 6.73877e-70 1.94938e-69 5.5943e-69 1.59259e-68 4.4973e-68 1.25969e-67 3.49961e-67 9.64258e-67 2.63489e-66 7.14007e-66 1.91862e-65 5.1121e-65 1.35054e-64 3.53742e-64 9.18573e-64 2.36462e-63 6.034e-63 1.52622e-62 3.82623e-62 9.5069e-62 2.34096e-61 5.71228e-61 1.3812e-60 3.30905e-60 7.85462e-60 1.8471e-59 4.303e-59 9.92968e-59 2.26962e-58 5.13801e-58 1.15193e-57 2.55752e-57 5.62263e-57 1.22393e-56 2.63774e-56 5.62781e-56 1.18862e-55 2.48488e-55 5.14157e-55 1.05288e-54 2.13362e-54 4.27836e-54 8.48834e-54 1.66616e-53 3.23537e-53 6.21451e-53 1.18067e-52 2.21846e-52 4.12228e-52 7.57441e-52 1.3761e-51 2.47172e-51 4.38896e-51 7.70367e-51 1.3365e-50 2.29161e-50 3.88305e-50 6.50171e-50 1.07565e-49 1.75817e-49 2.83902e-49 4.52851e-49 7.13487e-49 1.11027e-48 1.70628e-48 2.58953e-48 3.8807e-48 5.74236e-48 8.38947e-48 1.21009e-47 1.72314e-47 2.42227e-47 3.3613e-47 4.60427e-47 6.22547e-47 8.30879e-47 1.0946e-46 1.42339e-46 1.82708e-46 2.31509e-46 2.89584e-46 3.57608e-46 4.36014e-46 5.24929e-46 6.24108e-46 7.32901e-46 8.50224e-46 9.74573e-46 1.10406e-45 1.23648e-45 1.36943e-45 1.50037e-45 1.62681e-45 1.74643e-45 1.85716e-45 1.95734e-45 2.04574e-45 2.1216e-45 2.18468e-45 2.23517e-45 2.27365e-45 2.301e-45 2.31831e-45 2.3268e-45 2.32771e-45 2.32223e-45 2.31147e-45 2.29642e-45 2.27794e-45 2.25678e-45 2.23359e-45 2.20899e-45 2.18353e-45 2.1578e-45 2.13237e-45 2.10786e-45 2.08487e-45 2.06401e-45 2.04584e-45 2.03083e-45 2.01938e-45 2.01172e-45 2.00793e-45 2.00794e-45 2.01149e-45 2.0182e-45 2.02753e-45 2.0389e-45 2.05164e-45 2.06509e-45 2.07863e-45 2.09169e-45 2.10381e-45 2.11462e-45 2.1239e-45 2.13153e-45 2.13752e-45 2.14196e-45 2.14504e-45 2.14703e-45 2.14823e-45 2.14896e-45 2.14956e-45 2.15035e-45 2.15164e-45 2.15369e-45 2.15673e-45 2.16095e-45 2.16648e-45 2.17338e-45 2.1817e-45 2.19142e-45 2.20246e-45 2.21471e-45 2.22801e-45 2.24218e-45 2.25698e-45 2.27214e-45 2.28739e-45 2.3024e-45 2.31685e-45 2.3304e-45 2.34271e-45 2.35347e-45 2.36237e-45 2.36916e-45 2.37363e-45 2.37564e-45 2.37512e-45 2.37204e-45 2.36646e-45 2.35848e-45 2.34825e-45 2.33594e-45 2.3217e-45 2.30567e-45 2.28795e-45 2.26857e-45 2.24748e-45 2.22452e-45 2.19946e-45 2.17196e-45 2.14159e-45 2.10784e-45 2.07014e-45 2.0279e-45 1.98052e-45 1.92745e-45 1.8682e-45 1.80244e-45 1.73e-45 1.6509e-45 1.56541e-45 1.47408e-45 1.37769e-45 1.27726e-45 1.17403e-45 1.06939e-45 9.64832e-46 8.6187e-46 7.61968e-46 6.66472e-46 5.76553e-46 4.93156e-46 4.16972e-46 3.48426e-46 2.87681e-46 2.34658e-46 1.8907e-46 1.50459e-46 1.18245e-46 9.17657e-47 7.03207e-47 5.32074e-47 3.97495e-47 2.93195e-47 2.13521e-47 1.53528e-47 1.08994e-47 7.64005e-48 5.28786e-48 3.61385e-48 2.43886e-48 1.62536e-48 1.06975e-48 6.9536e-49 4.46437e-49 2.83115e-49 1.77356e-49 1.09759e-49 6.71092e-50 4.05416e-50 2.42009e-50 1.4276e-50 8.32274e-51 4.79559e-51 2.73131e-51 1.53776e-51 8.55918e-52 4.71018e-52 2.56296e-52 1.37904e-52 7.33796e-53 3.86128e-53 2.00877e-53 1.03172e-53 5.19965e-54 2.50343e-54 1.00599e-54 0 
0 7.59839e-72 2.53339e-71 7.64472e-71 2.26772e-70 6.66785e-70 1.94497e-69 5.62853e-69 1.61589e-68 4.60197e-68 1.30007e-67 3.64299e-67 1.0125e-66 2.79097e-66 7.6298e-66 2.06846e-65 5.56071e-65 1.48232e-64 3.91789e-64 1.02669e-63 2.66734e-63 6.86977e-63 1.7539e-62 4.43854e-62 1.11332e-61 2.7677e-61 6.8188e-61 1.6648e-60 4.02762e-60 9.65475e-60 2.29304e-59 5.39547e-59 1.25767e-58 2.90394e-58 6.64154e-58 1.50444e-57 3.37502e-57 7.49791e-57 1.64943e-56 3.59275e-56 7.74791e-56 1.65415e-55 3.49591e-55 7.31324e-55 1.51422e-54 3.10285e-54 6.29204e-54 1.26254e-53 2.50659e-53 4.92347e-53 9.56692e-53 1.83886e-52 3.49593e-52 6.57322e-52 1.22224e-51 2.24728e-51 4.0855e-51 7.34312e-51 1.30474e-50 2.2916e-50 3.9782e-50 6.8254e-50 1.15724e-49 1.93883e-49 3.20949e-49 5.24898e-49 8.48049e-49 1.35344e-48 2.1335e-48 3.32162e-48 5.10711e-48 7.75423e-48 1.16255e-47 1.72092e-47 2.51513e-47 3.62902e-47 5.16917e-47 7.26837e-47 1.00883e-46 1.38215e-46 1.8691e-46 2.49485e-46 3.28691e-46 4.27431e-46 5.48638e-46 6.95122e-46 8.69383e-46 1.0734e-45 1.30844e-45 1.57479e-45 1.87166e-45 2.197e-45 2.54747e-45 2.91846e-45 3.30421e-45 3.69804e-45 4.09261e-45 4.48032e-45 4.8537e-45 5.20577e-45 5.53042e-45 5.82274e-45 6.07915e-45 6.29761e-45 6.47752e-45 6.61964e-45 6.7259e-45 6.79914e-45 6.84281e-45 6.86069e-45 6.85659e-45 6.83419e-45 6.79686e-45 6.74756e-45 6.68888e-45 6.623e-45 6.55183e-45 6.4771e-45 6.40043e-45 6.32341e-45 6.24769e-45 6.17497e-45 6.10698e-45 6.04542e-45 5.99186e-45 5.94769e-45 5.91398e-45 5.89141e-45 5.88019e-45 5.88008e-45 5.89034e-45 5.9098e-45 5.93694e-45 5.96999e-45 6.00705e-45 6.04617e-45 6.08552e-45 6.12348e-45 6.15866e-45 6.19003e-45 6.21691e-45 6.23898e-45 6.25623e-45 6.269e-45 6.27782e-45 6.28346e-45 6.28679e-45 6.28877e-45 6.29039e-45 6.29258e-45 6.29622e-45 6.30211e-45 6.31091e-45 6.32314e-45 6.33919e-45 6.35928e-45 6.38349e-45 6.41178e-45 6.44394e-45 6.47963e-45 6.51842e-45 6.55972e-45 6.60287e-45 6.64711e-45 6.69158e-45 6.73538e-45 6.77756e-45 6.81711e-45 6.85308e-45 6.88451e-45 6.91056e-45 6.93048e-45 6.94367e-45 6.94972e-45 6.94841e-45 6.93973e-45 6.92383e-45 6.90105e-45 6.87184e-45 6.83671e-45 6.79617e-45 6.75065e-45 6.70047e-45 6.64575e-45 6.58636e-45 6.5219e-45 6.45166e-45 6.37466e-45 6.28961e-45 6.19497e-45 6.08902e-45 5.96992e-45 5.83582e-45 5.68496e-45 5.5158e-45 5.32721e-45 5.11851e-45 4.88969e-45 4.64143e-45 4.37519e-45 4.09324e-45 3.79858e-45 3.49486e-45 3.18621e-45 2.8771e-45 2.57208e-45 2.27559e-45 1.99172e-45 1.72404e-45 1.47546e-45 1.24813e-45 1.04339e-45 8.61799e-46 7.03177e-46 5.66711e-46 4.51072e-46 3.54548e-46 2.75179e-46 2.10883e-46 1.59564e-46 1.19201e-46 8.79167e-47 6.40186e-47 4.60243e-47 3.26679e-47 2.28938e-47 1.58413e-47 1.08233e-47 7.30194e-48 4.86467e-48 3.20057e-48 2.07963e-48 1.33462e-48 8.46002e-49 5.29734e-49 3.27679e-49 2.00252e-49 1.20914e-49 7.2141e-50 4.25332e-50 2.47828e-50 1.4272e-50 8.12396e-51 4.57127e-51 2.54289e-51 1.39855e-51 7.60544e-52 4.08979e-52 2.17488e-52 1.14375e-52 5.94655e-53 3.05238e-53 1.53745e-53 7.39842e-54 2.97191e-54 0 
0 2.17181e-71 7.24309e-71 2.18642e-70 6.48812e-70 1.90843e-69 5.5689e-69 1.6122e-68 4.63029e-68 1.31921e-67 3.72835e-67 1.04518e-66 2.90612e-66 8.01426e-66 2.19187e-65 5.94492e-65 1.59894e-64 4.26429e-64 1.12763e-63 2.95643e-63 7.68461e-63 1.98018e-62 5.05816e-62 1.28072e-61 3.21416e-61 7.99468e-61 1.97074e-60 4.81422e-60 1.16536e-59 2.79514e-59 6.64245e-59 1.56388e-58 3.64755e-58 8.42733e-58 1.92858e-57 4.37136e-57 9.8128e-57 2.1814e-56 4.80187e-56 1.04662e-55 2.25856e-55 4.82513e-55 1.02044e-54 2.13614e-54 4.42593e-54 9.07557e-54 1.84163e-53 3.6979e-53 7.34673e-53 1.44405e-52 2.80793e-52 5.40087e-52 1.02749e-51 1.93328e-51 3.59725e-51 6.61865e-51 1.20407e-50 2.16561e-50 3.85047e-50 6.76728e-50 1.17556e-49 2.01819e-49 3.42398e-49 5.74e-49 9.50754e-49 1.55582e-48 2.51508e-48 4.01613e-48 6.33419e-48 9.86659e-48 1.51776e-47 2.3055e-47 3.45798e-47 5.12091e-47 7.48704e-47 1.08065e-46 1.53976e-46 2.16564e-46 3.00657e-46 4.11995e-46 5.57232e-46 7.43869e-46 9.80099e-46 1.27455e-45 1.63593e-45 2.07256e-45 2.5918e-45 3.19943e-45 3.89902e-45 4.69132e-45 5.57368e-45 6.53976e-45 7.57929e-45 8.67825e-45 9.8192e-45 1.0982e-44 1.21445e-44 1.32841e-44 1.43784e-44 1.54066e-44 1.63509e-44 1.71968e-44 1.79342e-44 1.85574e-44 1.90651e-44 1.94602e-44 1.97491e-44 1.99408e-44 2.00459e-44 2.00763e-44 2.00435e-44 1.99589e-44 1.98324e-44 1.96731e-44 1.94886e-44 1.92851e-44 1.90683e-44 1.8843e-44 1.86137e-44 1.83848e-44 1.81609e-44 1.79468e-44 1.77471e-44 1.75668e-44 1.74101e-44 1.72811e-44 1.71826e-44 1.71166e-44 1.70837e-44 1.70829e-44 1.71123e-44 1.71683e-44 1.72466e-44 1.73419e-44 1.74488e-44 1.75617e-44 1.76752e-44 1.77845e-44 1.78859e-44 1.79761e-44 1.80534e-44 1.81166e-44 1.8166e-44 1.82024e-44 1.82274e-44 1.82432e-44 1.82524e-44 1.82577e-44 1.8262e-44 1.82679e-44 1.82782e-44 1.82949e-44 1.83202e-44 1.83553e-44 1.84016e-44 1.84595e-44 1.85295e-44 1.86112e-44 1.87041e-44 1.88073e-44 1.89194e-44 1.90389e-44 1.91637e-44 1.92917e-44 1.94204e-44 1.95472e-44 1.96693e-44 1.97839e-44 1.98881e-44 1.99793e-44 2.00549e-44 2.01129e-44 2.01515e-44 2.01695e-44 2.01664e-44 2.01422e-44 2.00973e-44 2.00329e-44 1.99502e-44 1.9851e-44 1.97367e-44 1.96087e-44 1.94681e-44 1.93153e-44 1.915e-44 1.89711e-44 1.87766e-44 1.85637e-44 1.83284e-44 1.80663e-44 1.77721e-44 1.74401e-44 1.70647e-44 1.66404e-44 1.61624e-44 1.56266e-44 1.5031e-44 1.43749e-44 1.366e-44 1.28903e-44 1.20723e-44 1.12146e-44 1.03279e-44 9.42437e-45 8.51738e-45 7.62051e-45 6.74706e-45 5.90939e-45 5.11833e-45 4.38277e-45 3.70932e-45 3.10219e-45 2.56323e-45 2.09209e-45 1.68651e-45 1.34265e-45 1.05549e-45 8.19294e-46 6.27898e-46 4.75099e-46 3.54906e-46 2.6174e-46 1.90569e-46 1.36983e-46 9.72109e-47 6.81102e-47 4.71165e-47 3.2182e-47 2.17047e-47 1.4455e-47 9.50666e-48 6.17466e-48 3.96097e-48 2.5097e-48 1.57075e-48 9.71156e-49 5.93199e-49 3.57994e-49 2.13477e-49 1.25794e-49 7.32554e-50 4.21626e-50 2.39861e-50 1.34888e-50 7.49906e-51 4.12188e-51 2.24015e-51 1.2039e-51 6.39818e-52 3.36265e-52 1.74722e-52 8.96304e-53 4.51192e-53 2.17006e-53 8.71369e-54 0 
0 6.15752e-71 2.05416e-70 6.20291e-70 1.84137e-69 5.4183e-69 1.5817e-68 4.58085e-68 1.31617e-67 3.75143e-67 1.06067e-66 2.97469e-66 8.27474e-66 2.28296e-65 6.24666e-65 1.69504e-64 4.56111e-64 1.21701e-63 3.2198e-63 8.4459e-63 2.19645e-62 5.66279e-62 1.44726e-61 3.66641e-61 9.20641e-61 2.29121e-60 5.65118e-60 1.38129e-59 3.34557e-59 8.02917e-59 1.90922e-58 4.49775e-58 1.04969e-57 2.42672e-57 5.55704e-57 1.26037e-56 2.83111e-56 6.29773e-56 1.38723e-55 3.02562e-55 6.53359e-55 1.39677e-54 2.95599e-54 6.19223e-54 1.28388e-53 2.63449e-53 5.34973e-53 1.07496e-52 2.13717e-52 4.20375e-52 8.1799e-52 1.57447e-51 2.99749e-51 5.64392e-51 1.0509e-50 1.93493e-50 3.5225e-50 6.33984e-50 1.128e-49 1.98382e-49 3.44842e-49 5.92411e-49 1.00571e-48 1.68704e-48 2.79607e-48 4.57827e-48 7.40534e-48 1.18316e-47 1.86708e-47 2.9098e-47 4.47831e-47 6.80581e-47 1.02124e-46 1.51298e-46 2.21291e-46 3.19516e-46 4.55403e-46 6.40696e-46 8.89698e-46 1.21942e-45 1.64955e-45 2.20231e-45 2.90191e-45 3.77383e-45 4.84374e-45 6.13605e-45 7.67231e-45 9.46929e-45 1.15371e-44 1.38772e-44 1.64813e-44 1.93296e-44 2.2391e-44 2.56231e-44 2.89735e-44 3.23817e-44 3.57819e-44 3.91065e-44 4.22893e-44 4.52694e-44 4.79941e-44 5.04217e-44 5.25235e-44 5.4284e-44 5.57013e-44 5.67856e-44 5.75574e-44 5.80449e-44 5.82814e-44 5.83027e-44 5.81445e-44 5.78405e-44 5.74212e-44 5.69128e-44 5.63378e-44 5.57147e-44 5.50591e-44 5.43845e-44 5.37035e-44 5.30282e-44 5.2371e-44 5.1745e-44 5.11632e-44 5.06388e-44 5.01842e-44 4.98101e-44 4.95246e-44 4.93331e-44 4.92369e-44 4.92337e-44 4.93169e-44 4.94769e-44 4.97007e-44 4.99736e-44 5.02795e-44 5.06024e-44 5.09269e-44 5.12396e-44 5.15289e-44 5.17865e-44 5.20066e-44 5.21866e-44 5.23267e-44 5.24295e-44 5.24996e-44 5.25435e-44 5.25685e-44 5.25824e-44 5.25936e-44 5.26097e-44 5.26382e-44 5.26855e-44 5.27572e-44 5.28575e-44 5.29897e-44 5.31555e-44 5.33558e-44 5.359e-44 5.38564e-44 5.41523e-44 5.44739e-44 5.48166e-44 5.51748e-44 5.55421e-44 5.59115e-44 5.62756e-44 5.66263e-44 5.69555e-44 5.72552e-44 5.75175e-44 5.77354e-44 5.79027e-44 5.80148e-44 5.80682e-44 5.80614e-44 5.79944e-44 5.78691e-44 5.76885e-44 5.7457e-44 5.71793e-44 5.68603e-44 5.65043e-44 5.61145e-44 5.56926e-44 5.5238e-44 5.47478e-44 5.42162e-44 5.3635e-44 5.29928e-44 5.22761e-44 5.14694e-44 5.05554e-44 4.95169e-44 4.83366e-44 4.69993e-44 4.54926e-44 4.38085e-44 4.19441e-44 3.99033e-44 3.76969e-44 3.53428e-44 3.28658e-44 3.02972e-44 2.76727e-44 2.50316e-44 2.24141e-44 1.986e-44 1.74064e-44 1.50857e-44 1.2925e-44 1.09444e-44 9.15702e-45 7.56896e-45 6.17969e-45 4.98295e-45 3.96777e-45 3.11965e-45 2.42177e-45 1.85611e-45 1.40443e-45 1.04909e-45 7.73627e-46 5.63197e-46 4.04764e-46 2.87187e-46 2.01169e-46 1.39125e-46 9.4998e-47 6.40489e-47 4.26403e-47 2.80327e-47 1.82e-47 1.167e-47 7.39088e-48 4.62355e-48 2.85721e-48 1.74434e-48 1.05215e-48 6.2707e-49 3.69303e-49 2.1494e-49 1.23638e-49 7.02955e-50 3.95076e-50 2.19507e-50 1.20579e-50 6.54912e-51 3.5174e-51 1.86817e-51 9.81219e-52 5.09516e-52 2.61212e-52 1.31413e-52 6.31707e-53 2.53557e-53 0 