# vtk DataFile Version 3.0
Gray-Scott Simulation Output
ASCII
DATASET STRUCTURED_POINTS
DIMENSIONS 256 256 1
SPACING 1.0 1.0 1.0
ORIGIN 0 0 0
POINT_DATA 65536
SCALARS u double
LOOKUP_TABLE default
0 0 0 0 0 0 0 0 0 0 0 0 0 0 0 0 0 0 0 0 0 0 0 0 0 0 0 0 0 0 0 0 0 0 0 0 0 0 0 0 0 0 0 0 0 0 0 0 0 0 0 0 0 0 0 0 0 0 0 0 0 0 0 0 0 0 0 0 0 0 0 0 0 0 0 0 0 0 0 0 0 0 0 0 0 0 0 0 0 0 0 0 0 0 0 0 0 0 0 0 0 0 0 0 0 0 0 0 0 0 0 0 0 0 0 0 0 0 0 0 0 0 0 0 0 0 0 0 0 0 0 0 0 0 0 0 0 0 0 0 0 0 0 0 0 0 0 0 0 0 0 0 0 0 0 0 0 0 0 0 0 0 0 0 0 0 0 0 0 0 0 0 0 0 0 0 0 0 0 0 0 0 0 0 0 0 0 0 0 0 0 0 0 0 0 0 0 0 0 0 0 0 0 0 0 0 0 0 0 0 0 0 0 0 0 0 0 0 0 0 0 0 0 0 0 0 0 0 0 0 0 0 0 0 0 0 0 0 0 0 0 0 0 0 0 0 0 0 0 0 0 0 0 0 0 0 
0 8.01761e-74 2.60154e-73 7.59952e-73 2.1799e-72 6.19744e-72 1.74805e-71 4.89212e-71 1.35839e-70 3.7421e-70 1.0227e-69 2.77272e-69 7.45691e-69 1.98925e-68 5.26347e-68 1.38129e-67 3.59507e-67 9.27922e-67 2.37507e-66 6.02805e-66 1.51701e-65 3.78518e-65 9.36369e-65 2.29638e-64 5.58278e-64 1.34537e-63 3.21362e-63 7.60812e-63 1.78511e-62 4.1508e-62 9.56421e-62 2.18368e-61 4.93995e-61 1.10719e-60 2.45844e-60 5.40761e-60 1.17823e-59 2.54274e-59 5.43491e-59 1.15046e-58 2.4116e-58 5.00572e-58 1.02878e-57 2.09334e-57 4.21684e-57 8.40878e-57 1.65975e-56 3.24255e-56 6.26944e-56 1.1996e-55 2.2713e-55 4.25513e-55 7.88704e-55 1.44626e-54 2.62344e-54 4.70717e-54 8.35363e-54 1.46617e-53 2.54478e-53 4.36758e-53 7.41178e-53 1.24354e-52 2.06264e-52 3.38202e-52 5.48135e-52 8.78062e-52 1.39014e-51 2.17498e-51 3.36271e-51 5.13723e-51 7.75439e-51 1.15643e-50 1.70381e-50 2.47987e-50 3.56549e-50 5.06379e-50 7.10363e-50 9.84279e-50 1.34703e-49 1.82076e-49 2.43071e-49 3.20494e-49 4.17365e-49 5.36818e-49 6.81971e-49 8.55754e-49 1.06072e-48 1.29882e-48 1.57122e-48 1.87804e-48 2.21824e-48 2.5895e-48 2.98814e-48 3.40918e-48 3.8465e-48 4.293e-48 4.74096e-48 5.18234e-48 5.60922e-48 6.01416e-48 6.39056e-48 6.73296e-48 7.0373e-48 7.30097e-48 7.52285e-48 7.70325e-48 7.84368e-48 7.94668e-48 8.01548e-48 8.05378e-48 8.06545e-48 8.05434e-48 8.02412e-48 7.97814e-48 7.91944e-48 7.85073e-48 7.77447e-48 7.69291e-48 7.60819e-48 7.52241e-48 7.43764e-48 7.35596e-48 7.27942e-48 7.20997e-48 7.14941e-48 7.09926e-48 7.06072e-48 7.0345e-48 7.02088e-48 7.01958e-48 7.02983e-48 7.0504e-48 7.07967e-48 7.11574e-48 7.15656e-48 7.20005e-48 7.24419e-48 7.28719e-48 7.32751e-48 7.36396e-48 7.39573e-48 7.4224e-48 7.44389e-48 7.46048e-48 7.47274e-48 7.48144e-48 7.48751e-48 7.492e-48 7.49599e-48 7.50052e-48 7.5066e-48 7.51511e-48 7.52682e-48 7.54234e-48 7.56211e-48 7.58643e-48 7.61539e-48 7.64893e-48 7.68683e-48 7.72871e-48 7.77404e-48 7.82218e-48 7.87233e-48 7.9236e-48 7.97502e-48 8.02553e-48 8.07402e-48 8.11939e-48 8.16052e-48 8.19635e-48 8.22593e-48 8.24843e-48 8.26316e-48 8.26966e-48 8.26764e-48 8.25703e-48 8.23796e-48 8.21069e-48 8.17563e-48 8.13321e-48 8.08388e-48 8.02798e-48 7.96573e-48 7.89714e-48 7.82196e-48 7.73965e-48 7.64937e-48 7.54999e-48 7.44008e-48 7.31802e-48 7.18201e-48 7.03016e-48 6.86066e-48 6.67184e-48 6.46234e-48 6.23123e-48 5.97813e-48 5.70336e-48 5.40798e-48 5.09385e-48 4.76364e-48 4.42074e-48 4.06916e-48 3.7134e-48 3.35824e-48 3.00853e-48 2.66894e-48 2.3438e-48 2.03691e-48 1.75135e-48 1.48942e-48 1.2526e-48 1.04154e-48 8.56119e-49 6.95551e-49 5.58476e-49 4.43117e-49 3.47402e-49 2.69102e-49 2.05944e-49 1.55708e-49 1.16303e-49 8.58187e-50 6.25577e-50 4.50494e-50 3.20488e-50 2.25245e-50 1.56399e-50 1.0729e-50 7.27189e-51 4.86988e-51 3.22249e-51 2.10712e-51 1.36155e-51 8.69471e-52 5.4875e-52 3.42312e-52 2.11069e-52 1.28651e-52 7.75207e-53 4.61815e-53 2.72017e-53 1.58429e-53 9.12458e-54 5.19715e-54 2.92769e-54 1.63126e-54 8.99062e-55 4.90168e-55 2.64347e-55 1.40968e-55 7.42097e-56 3.83024e-56 1.88382e-56 7.68864e-57 0 
0 2.59709e-73 8.42882e-73 2.46284e-72 7.06656e-72 2.00959e-71 5.6699e-71 1.58725e-70 4.40865e-70 1.21487e-69 3.32125e-69 9.00731e-69 2.42321e-68 6.46643e-68 1.71157e-67 4.49322e-67 1.16985e-66 3.02057e-66 7.73412e-66 1.96368e-65 4.94362e-65 1.23398e-64 3.05377e-64 7.4921e-64 1.82215e-63 4.3929e-63 1.04974e-62 2.48625e-62 5.836e-62 1.35759e-61 3.12948e-61 7.14829e-61 1.61781e-60 3.62764e-60 8.05857e-60 1.77338e-59 3.86569e-59 8.34644e-59 1.78483e-58 3.77991e-58 7.92727e-58 1.64624e-57 3.38501e-57 6.8911e-57 1.38883e-56 2.77081e-56 5.47182e-56 1.06952e-55 2.06892e-55 3.96064e-55 7.50271e-55 1.40627e-54 2.60785e-54 4.78436e-54 8.68282e-54 1.55868e-53 2.76744e-53 4.85947e-53 8.43832e-53 1.44892e-52 2.45992e-52 4.12905e-52 6.8517e-52 1.12391e-51 1.8223e-51 2.92031e-51 4.62517e-51 7.2391e-51 1.11962e-50 1.71102e-50 2.58352e-50 3.85402e-50 5.67983e-50 8.26902e-50 1.18918e-49 1.68926e-49 2.37018e-49 3.28466e-49 4.49582e-49 6.07755e-49 8.11414e-49 1.06992e-48 1.39332e-48 1.79207e-48 2.27651e-48 2.85636e-48 3.54004e-48 4.33397e-48 5.24182e-48 6.26386e-48 7.3964e-48 8.63141e-48 9.95638e-48 1.13545e-47 1.28049e-47 1.42839e-47 1.57655e-47 1.72228e-47 1.86294e-47 1.99604e-47 2.11941e-47 2.23126e-47 2.33026e-47 2.4156e-47 2.48693e-47 2.54443e-47 2.58864e-47 2.62047e-47 2.64103e-47 2.6516e-47 2.65351e-47 2.64805e-47 2.63647e-47 2.6199e-47 2.59933e-47 2.57566e-47 2.5497e-47 2.52218e-47 2.49377e-47 2.46515e-47 2.43698e-47 2.40992e-47 2.38463e-47 2.36172e-47 2.34176e-47 2.32525e-47 2.31256e-47 2.30392e-47 2.29942e-47 2.29895e-47 2.30226e-47 2.30894e-47 2.31846e-47 2.33021e-47 2.34351e-47 2.35767e-47 2.37204e-47 2.38604e-47 2.39916e-47 2.41101e-47 2.42133e-47 2.42998e-47 2.43695e-47 2.44231e-47 2.44626e-47 2.44905e-47 2.45099e-47 2.45241e-47 2.45367e-47 2.45512e-47 2.45707e-47 2.45982e-47 2.46362e-47 2.46866e-47 2.4751e-47 2.48302e-47 2.49246e-47 2.5034e-47 2.51576e-47 2.52943e-47 2.54422e-47 2.55993e-47 2.5763e-47 2.59304e-47 2.60983e-47 2.62633e-47 2.64218e-47 2.657e-47 2.67045e-47 2.68217e-47 2.69186e-47 2.69924e-47 2.7041e-47 2.70628e-47 2.70569e-47 2.70232e-47 2.69622e-47 2.68748e-47 2.67623e-47 2.66263e-47 2.64683e-47 2.62896e-47 2.60909e-47 2.58724e-47 2.56333e-47 2.5372e-47 2.50856e-47 2.47704e-47 2.44217e-47 2.40341e-47 2.36013e-47 2.31171e-47 2.25751e-47 2.19695e-47 2.12955e-47 2.05497e-47 1.97304e-47 1.88383e-47 1.78766e-47 1.68512e-47 1.57707e-47 1.46462e-47 1.34908e-47 1.23196e-47 1.11484e-47 9.99333e-48 8.87023e-48 7.79363e-48 6.77632e-48 5.82879e-48 4.95894e-48 4.17188e-48 3.46996e-48 2.85296e-48 2.31838e-48 1.86183e-48 1.47746e-48 1.15844e-48 8.97411e-49 6.86816e-49 5.19285e-49 3.87861e-49 2.86184e-49 2.08597e-49 1.502e-49 1.06841e-49 7.50781e-50 5.21211e-50 3.5748e-50 2.4224e-50 1.62185e-50 1.07293e-50 7.01375e-51 4.53074e-51 2.89238e-51 1.82488e-51 1.13799e-51 7.01438e-52 4.27387e-52 2.57433e-52 1.53303e-52 9.02628e-53 5.25501e-53 3.02536e-53 1.72247e-53 9.69904e-54 5.40185e-54 2.97593e-54 1.62178e-54 8.74243e-55 4.66003e-55 2.45212e-55 1.26511e-55 6.2199e-56 2.53792e-56 0 
0 7.5708e-73 2.45773e-72 7.18363e-72 2.06188e-71 5.86561e-71 1.65553e-70 4.63623e-70 1.2882e-69 3.55118e-69 9.71203e-69 2.63496e-68 7.09156e-68 1.89318e-67 5.01304e-67 1.31658e-66 3.4293e-66 8.85836e-66 2.26917e-65 5.76398e-65 1.45176e-64 3.62543e-64 8.9762e-64 2.20327e-63 5.36116e-63 1.29313e-62 3.09163e-62 7.32608e-62 1.72055e-61 4.00447e-61 9.2359e-61 2.11077e-60 4.77973e-60 1.07235e-59 2.38347e-59 5.24804e-59 1.14463e-58 2.4728e-58 5.29095e-58 1.12117e-57 2.3527e-57 4.88868e-57 1.0058e-56 2.0488e-56 4.13161e-56 8.24779e-56 1.62976e-55 3.18742e-55 6.1696e-55 1.18179e-54 2.24002e-54 4.20109e-54 7.79531e-54 1.43098e-53 2.59851e-53 4.66738e-53 8.29172e-53 1.45681e-52 2.53113e-52 4.34855e-52 7.3868e-52 1.24056e-51 2.05964e-51 3.38024e-51 5.48341e-51 8.7916e-51 1.39305e-50 2.18131e-50 3.37512e-50 5.16001e-50 7.79426e-50 1.16315e-49 1.71476e-49 2.49723e-49 3.59233e-49 5.1043e-49 7.16344e-49 9.92924e-49 1.35927e-48 1.83773e-48 2.4538e-48 3.23572e-48 4.21387e-48 5.41969e-48 6.88432e-48 8.63691e-48 1.07026e-47 1.31002e-47 1.58404e-47 1.89233e-47 2.23368e-47 2.6056e-47 3.00419e-47 3.42428e-47 3.85951e-47 4.30259e-47 4.74563e-47 5.18047e-47 5.5991e-47 5.99408e-47 6.35888e-47 6.6882e-47 6.97816e-47 7.22644e-47 7.43223e-47 7.5962e-47 7.72021e-47 7.80716e-47 7.8606e-47 7.88453e-47 7.88307e-47 7.86023e-47 7.81981e-47 7.76521e-47 7.69948e-47 7.62528e-47 7.54495e-47 7.46062e-47 7.37427e-47 7.28779e-47 7.20307e-47 7.122e-47 7.04642e-47 6.97812e-47 6.91872e-47 6.86963e-47 6.8319e-47 6.80619e-47 6.79271e-47 6.79116e-47 6.80076e-47 6.82031e-47 6.84823e-47 6.88269e-47 6.92171e-47 6.96326e-47 7.00543e-47 7.04646e-47 7.0849e-47 7.1196e-47 7.14979e-47 7.17506e-47 7.19535e-47 7.21095e-47 7.22239e-47 7.23042e-47 7.23596e-47 7.23999e-47 7.24357e-47 7.24769e-47 7.25332e-47 7.26132e-47 7.27241e-47 7.28717e-47 7.30605e-47 7.3293e-47 7.35703e-47 7.38918e-47 7.42552e-47 7.4657e-47 7.50922e-47 7.55544e-47 7.60361e-47 7.65287e-47 7.7023e-47 7.75087e-47 7.79753e-47 7.84121e-47 7.88085e-47 7.91543e-47 7.94405e-47 7.9659e-47 7.98037e-47 7.987e-47 7.98556e-47 7.976e-47 7.95848e-47 7.93332e-47 7.90094e-47 7.86182e-47 7.81646e-47 7.76525e-47 7.70847e-47 7.64618e-47 7.57817e-47 7.50397e-47 7.42277e-47 7.33345e-47 7.23458e-47 7.1245e-47 7.00133e-47 6.86309e-47 6.70781e-47 6.53365e-47 6.33903e-47 6.12278e-47 5.8843e-47 5.62366e-47 5.34169e-47 5.04005e-47 4.72123e-47 4.38849e-47 4.04577e-47 3.69754e-47 3.34859e-47 3.00383e-47 2.66803e-47 2.34566e-47 2.04063e-47 1.75619e-47 1.4948e-47 1.25807e-47 1.04678e-47 8.60914e-48 6.99782e-48 5.62097e-48 4.46129e-48 3.49846e-48 2.71038e-48 2.07443e-48 1.56844e-48 1.17145e-48 8.64303e-49 6.29923e-49 4.53517e-49 3.22544e-49 2.26612e-49 1.57286e-49 1.07851e-49 7.30632e-50 4.89033e-50 3.23417e-50 2.11347e-50 1.36477e-50 8.70932e-51 5.49281e-51 3.42388e-51 2.10954e-51 1.28478e-51 7.73532e-52 4.60429e-52 2.70967e-52 1.57678e-52 9.07319e-53 5.16317e-53 2.90585e-53 1.61757e-53 8.90674e-54 4.85131e-54 2.61379e-54 1.39251e-54 7.32357e-55 3.77652e-55 1.85589e-55 7.57021e-56 0 
0 2.16694e-72 7.03657e-72 2.0574e-71 5.90735e-71 1.68114e-70 4.74668e-70 1.32979e-69 3.69635e-69 1.01938e-68 2.789e-68 7.56994e-68 2.03819e-67 5.44352e-67 1.44204e-66 3.78894e-66 9.87352e-66 2.55164e-65 6.53939e-65 1.66188e-64 4.18776e-64 1.04631e-63 2.59185e-63 6.3651e-63 1.5496e-62 3.73963e-62 8.94552e-62 2.12092e-61 4.98373e-61 1.16057e-60 2.67825e-60 6.12433e-60 1.38762e-59 3.11497e-59 6.9276e-59 1.52625e-58 3.33086e-58 7.20014e-58 1.54152e-57 3.26853e-57 6.86305e-57 1.42696e-56 2.93769e-56 5.98778e-56 1.20826e-55 2.41353e-55 4.77214e-55 9.33914e-55 1.80884e-54 3.46704e-54 6.57578e-54 1.23405e-53 2.29127e-53 4.2087e-53 7.64733e-53 1.37444e-52 2.44323e-52 4.29521e-52 7.46715e-52 1.28363e-51 2.18173e-51 3.66612e-51 6.09006e-51 1.00003e-50 1.62309e-50 2.60363e-50 4.12754e-50 6.46617e-50 1.00095e-49 1.53096e-49 2.31348e-49 3.45376e-49 5.09351e-49 7.42021e-49 1.06774e-48 1.51756e-48 2.13028e-48 2.9534e-48 4.0438e-48 5.46799e-48 7.30177e-48 9.62916e-48 1.25403e-47 1.61285e-47 2.04858e-47 2.56981e-47 3.18392e-47 3.89638e-47 4.71017e-47 5.62511e-47 6.63739e-47 7.73925e-47 8.91887e-47 1.01605e-46 1.14451e-46 1.27506e-46 1.40533e-46 1.5329e-46 1.65538e-46 1.77057e-46 1.87655e-46 1.97177e-46 2.05512e-46 2.12596e-46 2.18411e-46 2.22982e-46 2.26371e-46 2.2867e-46 2.29989e-46 2.30452e-46 2.30184e-46 2.29308e-46 2.27937e-46 2.26175e-46 2.24109e-46 2.2182e-46 2.19373e-46 2.1683e-46 2.14247e-46 2.11676e-46 2.09169e-46 2.0678e-46 2.0456e-46 2.02558e-46 2.0082e-46 1.99385e-46 1.98282e-46 1.9753e-46 1.97133e-46 1.97083e-46 1.97356e-46 1.97918e-46 1.98722e-46 1.99714e-46 2.00839e-46 2.02036e-46 2.0325e-46 2.04432e-46 2.05538e-46 2.06535e-46 2.07402e-46 2.08127e-46 2.08708e-46 2.09153e-46 2.09478e-46 2.09704e-46 2.09859e-46 2.09971e-46 2.1007e-46 2.10186e-46 2.10345e-46 2.10573e-46 2.10891e-46 2.11315e-46 2.11859e-46 2.12529e-46 2.13329e-46 2.14257e-46 2.15306e-46 2.16467e-46 2.17724e-46 2.1906e-46 2.20452e-46 2.21876e-46 2.23305e-46 2.2471e-46 2.2606e-46 2.27324e-46 2.28471e-46 2.29474e-46 2.30304e-46 2.3094e-46 2.31364e-46 2.31562e-46 2.31529e-46 2.31263e-46 2.30771e-46 2.30061e-46 2.29148e-46 2.28046e-46 2.2677e-46 2.25334e-46 2.23745e-46 2.22007e-46 2.20116e-46 2.18057e-46 2.15807e-46 2.13333e-46 2.10594e-46 2.07539e-46 2.04111e-46 2.00251e-46 1.95897e-46 1.90992e-46 1.85485e-46 1.79339e-46 1.72531e-46 1.65058e-46 1.56942e-46 1.48229e-46 1.38988e-46 1.29315e-46 1.19325e-46 1.09148e-46 9.8928e-47 8.88102e-47 7.8938e-47 6.94454e-47 6.04508e-47 5.20529e-47 4.43268e-47 3.73228e-47 3.10661e-47 2.55584e-47 2.07805e-47 1.66956e-47 1.32534e-47 1.03944e-47 8.05366e-48 6.16428e-48 4.66072e-48 3.48094e-48 2.56807e-48 1.87147e-48 1.34719e-48 9.57965e-49 6.7291e-49 4.66942e-49 3.20099e-49 2.16789e-49 1.45058e-49 9.59009e-50 6.26472e-50 4.04393e-50 2.57962e-50 1.62625e-50 1.01327e-50 6.2402e-51 3.79875e-51 2.28603e-51 1.36005e-51 8.00003e-52 4.65291e-52 2.67601e-52 1.522e-52 8.56128e-53 4.76314e-53 2.62125e-53 1.42695e-53 7.68381e-54 4.09129e-54 2.15053e-54 1.10837e-54 5.44429e-55 2.21998e-55 0 
0 6.14698e-72 1.99664e-71 5.83992e-71 1.67742e-70 4.77548e-70 1.34887e-69 3.78039e-69 1.05124e-68 2.90028e-68 7.93843e-68 2.15557e-67 5.80632e-67 1.55142e-66 4.11171e-66 1.08083e-65 2.81784e-65 7.28566e-65 1.86808e-64 4.74973e-64 1.19748e-63 2.99341e-63 7.41888e-63 1.82289e-62 4.44022e-62 1.07213e-61 2.56602e-61 6.0872e-61 1.43118e-60 3.33471e-60 7.6999e-60 1.76176e-59 3.99404e-59 8.97132e-59 1.9964e-58 4.40105e-58 9.61065e-58 2.07877e-57 4.45336e-57 9.44854e-57 1.98521e-56 4.13028e-56 8.50849e-56 1.73538e-55 3.50404e-55 7.00399e-55 1.38577e-54 2.71374e-54 5.25951e-54 1.00876e-53 1.91452e-53 3.59524e-53 6.67966e-53 1.22774e-52 2.23226e-52 4.01456e-52 7.14082e-52 1.25614e-51 2.18512e-51 3.75855e-51 6.39206e-51 1.07473e-50 1.78633e-50 2.93488e-50 4.76602e-50 7.64928e-50 1.21326e-49 1.9016e-49 2.94502e-49 4.50641e-49 6.81263e-49 1.01745e-48 1.50107e-48 2.1875e-48 3.14873e-48 4.4765e-48 6.28549e-48 8.71606e-48 1.19362e-47 1.61424e-47 2.15584e-47 2.84319e-47 3.70287e-47 4.76229e-47 6.0485e-47 7.58664e-47 9.39811e-47 1.14987e-46 1.38967e-46 1.65908e-46 1.95691e-46 2.28079e-46 2.62713e-46 2.99122e-46 3.36731e-46 3.74886e-46 4.12883e-46 4.50001e-46 4.85537e-46 5.18843e-46 5.49359e-46 5.7664e-46 6.00369e-46 6.20374e-46 6.36617e-46 6.49191e-46 6.58296e-46 6.64218e-46 6.67301e-46 6.67921e-46 6.6646e-46 6.63286e-46 6.58739e-46 6.53123e-46 6.46701e-46 6.39697e-46 6.32306e-46 6.24699e-46 6.17029e-46 6.09445e-46 6.02088e-46 5.95104e-46 5.88634e-46 5.82814e-46 5.77771e-46 5.73611e-46 5.70415e-46 5.68234e-46 5.67077e-46 5.66917e-46 5.67687e-46 5.69284e-46 5.71577e-46 5.74411e-46 5.77622e-46 5.81041e-46 5.84508e-46 5.87879e-46 5.91033e-46 5.93875e-46 5.96341e-46 5.984e-46 6.00047e-46 6.01304e-46 6.02219e-46 6.02852e-46 6.03281e-46 6.03588e-46 6.03859e-46 6.04178e-46 6.04625e-46 6.05269e-46 6.06172e-46 6.07381e-46 6.08932e-46 6.10847e-46 6.13134e-46 6.15789e-46 6.18792e-46 6.22114e-46 6.25714e-46 6.29538e-46 6.33526e-46 6.37607e-46 6.41702e-46 6.45729e-46 6.49599e-46 6.53225e-46 6.5652e-46 6.59399e-46 6.61788e-46 6.63622e-46 6.64851e-46 6.65439e-46 6.65369e-46 6.64642e-46 6.63273e-46 6.61294e-46 6.58746e-46 6.55675e-46 6.52127e-46 6.48143e-46 6.43752e-46 6.38965e-46 6.33771e-46 6.28132e-46 6.21982e-46 6.15226e-46 6.0774e-46 5.99376e-46 5.89963e-46 5.79319e-46 5.67259e-46 5.53603e-46 5.38195e-46 5.20909e-46 5.01668e-46 4.80454e-46 4.57315e-46 4.32375e-46 4.05832e-46 3.77957e-46 3.49083e-46 3.19596e-46 2.89912e-46 2.60465e-46 2.3168e-46 2.03956e-46 1.77648e-46 1.53053e-46 1.304e-46 1.09844e-46 9.14651e-47 7.52742e-47 6.12193e-47 4.91963e-47 3.90604e-47 3.06385e-47 2.37409e-47 1.81721e-47 1.37397e-47 1.02614e-47 7.56978e-48 5.51584e-48 3.97004e-48 2.82253e-48 1.98224e-48 1.37518e-48 9.42463e-49 6.38103e-49 4.26833e-49 2.82091e-49 1.84209e-49 1.18862e-49 7.57916e-50 4.77603e-50 2.97449e-50 1.831e-50 1.1141e-50 6.70123e-51 3.98483e-51 2.34273e-51 1.36185e-51 7.82816e-52 4.4499e-52 2.5017e-52 1.39106e-52 7.65098e-53 4.16264e-53 2.24021e-53 1.19213e-53 6.26269e-54 3.22598e-54 1.58383e-54 6.45601e-55 0 
0 1.72995e-71 5.62078e-71 1.64459e-70 4.7256e-70 1.34586e-69 3.80298e-69 1.06627e-68 2.96624e-68 8.18705e-68 2.24185e-67 6.09008e-67 1.64117e-66 4.38709e-66 1.16324e-65 3.0592e-65 7.97942e-65 2.06412e-64 5.29509e-64 1.34699e-63 3.39769e-63 8.4978e-63 2.10721e-62 5.18036e-62 1.26252e-61 3.05015e-61 7.30426e-61 1.73372e-60 4.07853e-60 9.5087e-60 2.19687e-59 5.02949e-59 1.14091e-58 2.56425e-58 5.70979e-58 1.2595e-57 2.75214e-57 5.95663e-57 1.27691e-56 2.71093e-56 5.69956e-56 1.18659e-55 2.44602e-55 4.99215e-55 1.00868e-54 2.01753e-54 3.99443e-54 7.82751e-54 1.51807e-53 2.91357e-53 5.53335e-53 1.03979e-52 1.93313e-52 3.55548e-52 6.46879e-52 1.16412e-51 2.07199e-51 3.64716e-51 6.34839e-51 1.09264e-50 1.85935e-50 3.12808e-50 5.20226e-50 8.55203e-50 1.38955e-49 2.23137e-49 3.54102e-49 5.55278e-49 8.60375e-49 1.31713e-48 1.99205e-48 2.97629e-48 4.39265e-48 6.40366e-48 9.22052e-48 1.31125e-47 1.84162e-47 2.55434e-47 3.49872e-47 4.73235e-47 6.32083e-47 8.33674e-47 1.08578e-46 1.39641e-46 1.77345e-46 2.2242e-46 2.75484e-46 3.36988e-46 4.07155e-46 4.85934e-46 5.72951e-46 6.67484e-46 7.6846e-46 8.74467e-46 9.83798e-46 1.09452e-45 1.20454e-45 1.31175e-45 1.41408e-45 1.50965e-45 1.59684e-45 1.67436e-45 1.74133e-45 1.79728e-45 1.84217e-45 1.87631e-45 1.90034e-45 1.91515e-45 1.92179e-45 1.9214e-45 1.91514e-45 1.9041e-45 1.8893e-45 1.87162e-45 1.85183e-45 1.83058e-45 1.80842e-45 1.78582e-45 1.76321e-45 1.741e-45 1.71956e-45 1.69929e-45 1.68057e-45 1.66378e-45 1.64925e-45 1.63728e-45 1.62809e-45 1.6218e-45 1.61845e-45 1.61795e-45 1.6201e-45 1.62461e-45 1.6311e-45 1.63912e-45 1.64822e-45 1.6579e-45 1.66772e-45 1.67726e-45 1.68618e-45 1.69421e-45 1.70118e-45 1.70698e-45 1.71161e-45 1.71513e-45 1.71768e-45 1.71944e-45 1.72061e-45 1.72144e-45 1.72218e-45 1.72305e-45 1.72429e-45 1.7261e-45 1.72864e-45 1.73206e-45 1.73645e-45 1.74188e-45 1.74836e-45 1.7559e-45 1.76442e-45 1.77386e-45 1.78408e-45 1.79495e-45 1.80628e-45 1.81788e-45 1.82953e-45 1.84098e-45 1.85199e-45 1.86231e-45 1.87169e-45 1.8799e-45 1.88671e-45 1.89196e-45 1.8955e-45 1.89723e-45 1.89711e-45 1.89514e-45 1.89138e-45 1.88591e-45 1.87887e-45 1.8704e-45 1.86063e-45 1.84971e-45 1.83771e-45 1.82467e-45 1.81059e-45 1.79534e-45 1.77875e-45 1.76055e-45 1.74036e-45 1.71776e-45 1.69224e-45 1.66325e-45 1.63022e-45 1.59262e-45 1.54994e-45 1.5018e-45 1.44792e-45 1.38823e-45 1.32282e-45 1.25202e-45 1.17638e-45 1.09668e-45 1.01388e-45 9.29077e-46 8.43509e-46 7.58437e-46 6.75118e-46 5.94734e-46 5.18342e-46 4.4683e-46 3.80887e-46 3.20987e-46 2.67383e-46 2.20125e-46 1.79074e-46 1.43938e-46 1.14303e-46 8.96697e-47 6.94884e-47 5.31911e-47 4.02172e-47 3.00346e-47 2.21547e-47 1.61416e-47 1.16162e-47 8.25713e-48 5.79766e-48 4.02115e-48 2.7551e-48 1.8648e-48 1.24698e-48 8.23833e-49 5.37771e-49 3.46865e-49 2.21084e-49 1.39256e-49 8.6689e-50 5.33379e-50 3.24386e-50 1.95018e-50 1.15907e-50 6.81073e-51 3.95701e-51 2.27332e-51 1.29155e-51 7.25689e-52 4.03287e-52 2.21684e-52 1.2054e-52 6.48332e-53 3.44807e-53 1.81035e-53 9.32011e-54 4.57355e-54 1.8636e-54 0 
0 4.83052e-71 1.56995e-70 4.59522e-70 1.3209e-69 3.76343e-69 1.06386e-68 2.98402e-68 8.30472e-68 2.29314e-67 6.28201e-67 1.70729e-66 4.60292e-66 1.23099e-65 3.26551e-65 8.59207e-65 2.24218e-64 5.80294e-64 1.48938e-63 3.79069e-63 9.56671e-63 2.39394e-62 5.93946e-62 1.46095e-61 3.56252e-61 8.61156e-61 2.06341e-60 4.90048e-60 1.1535e-59 2.69087e-59 6.22067e-59 1.42502e-58 3.23458e-58 7.27441e-58 1.62081e-57 3.57757e-57 7.82236e-57 1.69415e-56 3.63408e-56 7.7204e-56 1.62425e-55 3.38378e-55 6.97999e-55 1.42554e-54 2.88229e-54 5.76901e-54 1.14297e-53 2.24131e-53 4.34978e-53 8.35408e-53 1.58766e-52 2.98546e-52 5.55421e-52 1.02224e-51 1.8611e-51 3.35145e-51 5.96909e-51 1.05138e-50 1.83124e-50 3.1538e-50 5.37016e-50 9.04e-50 1.50432e-49 2.4744e-49 4.02272e-49 6.46332e-49 1.02622e-48 1.61008e-48 2.49595e-48 3.82277e-48 5.78419e-48 8.64568e-48 1.2765e-47 1.86157e-47 2.68133e-47 3.81427e-47 5.35848e-47 7.434e-47 1.01845e-46 1.37776e-46 1.84045e-46 2.42762e-46 3.16184e-46 4.06637e-46 5.16403e-46 6.47586e-46 8.01958e-46 9.80795e-46 1.1847e-45 1.41347e-45 1.66595e-45 1.93996e-45 2.2323e-45 2.5388e-45 2.8544e-45 3.1734e-45 3.48972e-45 3.79713e-45 4.08965e-45 4.36181e-45 4.60895e-45 4.82743e-45 5.01479e-45 5.16981e-45 5.29248e-45 5.38388e-45 5.44603e-45 5.48167e-45 5.49399e-45 5.48643e-45 5.46241e-45 5.4252e-45 5.37779e-45 5.32277e-45 5.26235e-45 5.19839e-45 5.13244e-45 5.06579e-45 4.99962e-45 4.93499e-45 4.87295e-45 4.81454e-45 4.76077e-45 4.71266e-45 4.67112e-45 4.63693e-45 4.61069e-45 4.59272e-45 4.5831e-45 4.58154e-45 4.58749e-45 4.60011e-45 4.61832e-45 4.64087e-45 4.66643e-45 4.69364e-45 4.72122e-45 4.74801e-45 4.77304e-45 4.79555e-45 4.81505e-45 4.83126e-45 4.84417e-45 4.85397e-45 4.86102e-45 4.86584e-45 4.86903e-45 4.87126e-45 4.87322e-45 4.8756e-45 4.87901e-45 4.88402e-45 4.89113e-45 4.90071e-45 4.91304e-45 4.9283e-45 4.94656e-45 4.96777e-45 4.99179e-45 5.01837e-45 5.04719e-45 5.07783e-45 5.10978e-45 5.14249e-45 5.17533e-45 5.20764e-45 5.23872e-45 5.26786e-45 5.29437e-45 5.31758e-45 5.33689e-45 5.3518e-45 5.36191e-45 5.36696e-45 5.36684e-45 5.36157e-45 5.35132e-45 5.33638e-45 5.31713e-45 5.294e-45 5.26741e-45 5.23777e-45 5.20535e-45 5.17031e-45 5.13259e-45 5.09194e-45 5.04782e-45 4.99946e-45 4.94581e-45 4.88559e-45 4.8173e-45 4.73933e-45 4.64998e-45 4.54758e-45 4.43062e-45 4.29786e-45 4.14841e-45 3.98192e-45 3.79857e-45 3.59924e-45 3.38544e-45 3.15933e-45 2.92365e-45 2.68161e-45 2.43676e-45 2.19279e-45 1.95337e-45 1.72198e-45 1.50174e-45 1.29529e-45 1.1047e-45 9.31383e-46 7.7615e-46 6.39184e-46 5.2013e-46 4.18172e-46 3.32135e-46 2.6059e-46 2.01958e-46 1.54599e-46 1.1689e-46 8.7291e-47 6.4384e-47 4.69035e-47 3.37487e-47 2.39851e-47 1.68372e-47 1.1675e-47 7.99693e-48 5.41111e-48 3.61716e-48 2.38887e-48 1.55878e-48 1.00502e-48 6.40304e-49 4.03136e-49 2.50842e-49 1.54264e-49 9.37728e-50 5.63467e-50 3.34715e-50 1.96575e-50 1.14147e-50 6.55414e-51 3.72151e-51 2.08982e-51 1.1607e-51 6.37653e-52 3.46517e-52 1.86264e-52 9.9003e-53 5.19489e-53 2.67293e-53 1.31099e-53 5.34001e-54 0 
0 1.33823e-70 4.35065e-70 1.2739e-69 3.66327e-69 1.04413e-68 2.9528e-68 8.28578e-68 2.30697e-67 6.37288e-67 1.74661e-66 4.74898e-66 1.28093e-65 3.4273e-65 9.09609e-65 2.39448e-64 6.25172e-64 1.61881e-63 4.15695e-63 1.05856e-62 2.67294e-62 6.69228e-62 1.66129e-61 4.08861e-61 9.97565e-61 2.41276e-60 5.78456e-60 1.37462e-59 3.23758e-59 7.55716e-59 1.74812e-58 4.00706e-58 9.10114e-58 2.04811e-57 4.56631e-57 1.00857e-56 2.20669e-56 4.78237e-56 1.02655e-55 2.18231e-55 4.59437e-55 9.57797e-55 1.97709e-54 4.04064e-54 8.17546e-54 1.63749e-53 3.2465e-53 6.3707e-53 1.23725e-52 2.3779e-52 4.52228e-52 8.50968e-52 1.58426e-51 2.91781e-51 5.31582e-51 9.57919e-51 1.70725e-50 3.00909e-50 5.24453e-50 9.03808e-50 1.53994e-49 2.59392e-49 4.3191e-49 7.10854e-49 1.15633e-48 1.85891e-48 2.95312e-48 4.63566e-48 7.18982e-48 1.10171e-47 1.66774e-47 2.49385e-47 3.68353e-47 5.37384e-47 7.74291e-47 1.10179e-46 1.54828e-46 2.1485e-46 2.944e-46 3.98334e-46 5.32171e-46 7.0201e-46 9.14367e-46 1.17594e-45 1.49328e-45 1.87243e-45 2.31843e-45 2.83484e-45 3.4233e-45 4.08302e-45 4.81048e-45 5.5992e-45 6.43969e-45 7.31963e-45 8.22423e-45 9.13685e-45 1.00397e-44 1.09148e-44 1.17448e-44 1.25139e-44 1.3209e-44 1.38197e-44 1.43392e-44 1.47645e-44 1.50958e-44 1.53368e-44 1.54939e-44 1.55752e-44 1.55904e-44 1.55499e-44 1.54636e-44 1.53414e-44 1.51918e-44 1.50225e-44 1.48397e-44 1.46487e-44 1.44539e-44 1.42587e-44 1.40664e-44 1.38797e-44 1.37015e-44 1.35343e-44 1.3381e-44 1.32442e-44 1.31262e-44 1.30293e-44 1.29549e-44 1.2904e-44 1.28765e-44 1.28717e-44 1.28881e-44 1.29231e-44 1.29738e-44 1.30366e-44 1.31079e-44 1.31837e-44 1.32606e-44 1.33352e-44 1.34049e-44 1.34675e-44 1.35216e-44 1.35666e-44 1.36023e-44 1.36293e-44 1.36486e-44 1.36617e-44 1.36703e-44 1.36762e-44 1.36814e-44 1.36877e-44 1.3697e-44 1.37109e-44 1.37306e-44 1.37572e-44 1.37916e-44 1.38341e-44 1.38851e-44 1.39444e-44 1.40115e-44 1.40858e-44 1.41664e-44 1.4252e-44 1.43414e-44 1.44329e-44 1.45249e-44 1.46153e-44 1.47023e-44 1.4784e-44 1.48583e-44 1.49234e-44 1.49777e-44 1.50197e-44 1.50484e-44 1.5063e-44 1.50633e-44 1.50494e-44 1.50218e-44 1.49814e-44 1.49293e-44 1.48668e-44 1.47952e-44 1.47157e-44 1.46292e-44 1.45362e-44 1.44367e-44 1.43298e-44 1.42143e-44 1.40878e-44 1.39474e-44 1.37894e-44 1.36093e-44 1.34025e-44 1.31638e-44 1.28882e-44 1.25712e-44 1.22087e-44 1.17981e-44 1.13379e-44 1.08285e-44 1.02719e-44 9.67234e-45 9.03586e-45 8.37022e-45 7.6846e-45 6.98916e-45 6.29462e-45 5.61164e-45 4.95037e-45 4.31999e-45 3.72825e-45 3.18129e-45 2.6834e-45 2.23704e-45 1.8429e-45 1.50006e-45 1.20629e-45 9.58272e-46 7.51951e-46 5.82812e-46 4.46158e-46 3.37333e-46 2.51901e-46 1.85781e-46 1.35324e-46 9.73549e-47 6.91764e-47 4.85499e-47 3.36563e-47 2.30466e-47 1.55896e-47 1.04176e-47 6.87756e-48 4.486e-48 2.89114e-48 1.84117e-48 1.15868e-48 7.20622e-49 4.42955e-49 2.69124e-49 1.61629e-49 9.59608e-50 5.63262e-50 3.26892e-50 1.8759e-50 1.06454e-50 5.97444e-51 3.31627e-51 1.82076e-51 9.8885e-52 5.31215e-52 2.82178e-52 1.47975e-52 7.60933e-53 3.73024e-53 1.51885e-53 0 
0 3.67808e-70 1.19613e-69 3.50366e-69 1.00793e-68 2.87405e-68 8.13117e-68 2.28264e-67 6.3582e-67 1.7572e-66 4.81811e-66 1.31063e-65 3.5368e-65 9.46769e-65 2.51396e-64 6.6211e-64 1.72957e-63 4.4808e-63 1.15123e-62 2.93314e-62 7.4104e-62 1.85638e-61 4.61083e-61 1.13542e-60 2.77187e-60 6.70812e-60 1.60922e-59 3.82637e-59 9.01761e-59 2.1062e-58 4.8751e-58 1.11819e-57 2.54136e-57 5.72276e-57 1.27675e-56 2.82185e-56 6.17821e-56 1.33986e-55 2.87801e-55 6.12253e-55 1.28986e-54 2.69088e-54 5.55843e-54 1.1368e-53 2.30174e-53 4.61352e-53 9.15334e-53 1.79747e-52 3.49337e-52 6.71878e-52 1.27869e-51 2.40786e-51 4.48591e-51 8.26776e-51 1.50732e-50 2.7181e-50 4.84766e-50 8.54998e-50 1.49117e-49 2.57148e-49 4.38424e-49 7.38961e-49 1.2312e-48 2.02758e-48 3.30016e-48 5.30838e-48 8.4377e-48 1.32521e-47 2.05643e-47 3.15264e-47 4.77459e-47 7.1428e-47 1.05546e-46 1.54037e-46 2.22022e-46 3.16031e-46 4.44224e-46 6.16588e-46 8.45065e-46 1.1436e-45 1.52804e-45 2.01588e-45 2.6258e-45 3.37695e-45 4.28806e-45 5.37626e-45 6.6558e-45 8.13664e-45 9.82304e-45 1.17123e-44 1.37937e-44 1.60481e-44 1.84475e-44 2.0956e-44 2.35305e-44 2.61227e-44 2.86811e-44 3.11539e-44 3.34914e-44 3.56486e-44 3.7588e-44 3.92807e-44 4.07084e-44 4.18631e-44 4.27472e-44 4.33722e-44 4.37577e-44 4.39286e-44 4.39137e-44 4.37434e-44 4.34476e-44 4.30544e-44 4.25891e-44 4.20734e-44 4.15254e-44 4.09599e-44 4.03886e-44 3.98214e-44 3.92663e-44 3.87309e-44 3.82223e-44 3.77474e-44 3.73134e-44 3.6927e-44 3.65948e-44 3.6322e-44 3.61128e-44 3.59692e-44 3.58914e-44 3.5877e-44 3.59214e-44 3.60178e-44 3.61577e-44 3.63315e-44 3.65285e-44 3.67382e-44 3.69507e-44 3.71569e-44 3.73492e-44 3.75219e-44 3.7671e-44 3.77946e-44 3.78925e-44 3.79663e-44 3.80188e-44 3.80541e-44 3.80768e-44 3.80923e-44 3.81059e-44 3.81228e-44 3.8148e-44 3.81857e-44 3.82399e-44 3.83133e-44 3.84083e-44 3.85261e-44 3.86673e-44 3.88315e-44 3.90175e-44 3.92236e-44 3.94471e-44 3.96848e-44 3.99329e-44 4.01869e-44 4.04421e-44 4.06933e-44 4.09351e-44 4.1162e-44 4.13686e-44 4.15499e-44 4.17012e-44 4.18187e-44 4.18994e-44 4.19415e-44 4.19441e-44 4.19079e-44 4.18345e-44 4.17263e-44 4.15869e-44 4.14199e-44 4.12294e-44 4.10189e-44 4.07911e-44 4.05477e-44 4.02888e-44 4.00126e-44 3.97151e-44 3.93901e-44 3.90291e-44 3.86213e-44 3.81541e-44 3.76133e-44 3.69842e-44 3.62517e-44 3.5402e-44 3.4423e-44 3.33058e-44 3.20456e-44 3.06422e-44 2.91012e-44 2.74335e-44 2.5656e-44 2.37904e-44 2.18629e-44 1.99024e-44 1.79398e-44 1.60057e-44 1.41297e-44 1.23384e-44 1.06545e-44 9.09616e-45 7.67607e-45 6.40176e-45 5.27562e-45 4.29542e-45 3.45499e-45 2.74512e-45 2.15435e-45 1.6699e-45 1.2784e-45 9.66569e-46 7.21743e-46 5.3225e-46 3.87645e-46 2.78833e-46 1.98088e-46 1.38992e-46 9.6328e-47 6.59428e-47 4.45918e-47 2.97878e-47 1.96582e-47 1.28173e-47 8.25702e-48 5.25602e-48 3.30618e-48 2.05524e-48 1.2627e-48 7.66777e-49 4.60263e-49 2.73115e-49 1.60221e-49 9.29323e-50 5.32992e-50 3.02286e-50 1.69548e-50 9.40554e-51 5.16084e-51 2.8011e-51 1.50383e-51 7.98326e-52 4.18386e-52 2.1502e-52 1.05351e-52 4.28799e-53 0 