# vtk DataFile Version 3.0
Gray-Scott Simulation Output
ASCII
DATASET STRUCTURED_POINTS
DIMENSIONS 256 256 1
SPACING 1.0 1.0 1.0
ORIGIN 0 0 0
POINT_DATA 65536
SCALARS u double
LOOKUP_TABLE default
0 0 0 0 0 0 0 0 0 0 0 0 0 0 0 0 0 0 0 0 0 0 0 0 0 0 0 0 0 0 0 0 0 0 0 0 0 0 0 0 0 0 0 0 0 0 0 0 0 0 0 0 0 0 0 0 0 0 0 0 0 0 0 0 0 0 0 0 0 0 0 0 0 0 0 0 0 0 0 0 0 0 0 0 0 0 0 0 0 0 0 0 0 0 0 0 0 0 0 0 0 0 0 0 0 0 0 0 0 0 0 0 0 0 0 0 0 0 0 0 0 0 0 0 0 0 0 0 0 0 0 0 0 0 0 0 0 0 0 0 0 0 0 0 0 0 0 0 0 0 0 0 0 0 0 0 0 0 0 0 0 0 0 0 0 0 0 0 0 0 0 0 0 0 0 0 0 0 0 0 0 0 0 0 0 0 0 0 0 0 0 0 0 0 0 0 0 0 0 0 0 0 0 0 0 0 0 0 0 0 0 0 0 0 0 0 0 0 0 0 0 0 0 0 0 0 0 0 0 0 0 0 0 0 0 0 0 0 0 0 0 0 0 0 0 0 0 0 0 0 0 0 0 0 0 0 
0 4.38677e-80 1.67217e-79 5.89637e-79 2.05096e-78 7.07045e-78 2.41653e-77 8.18796e-77 2.75027e-76 9.15714e-76 3.02207e-75 9.88506e-75 3.20448e-74 1.02946e-73 3.2772e-73 1.03375e-72 3.23079e-72 1.00036e-71 3.06853e-71 9.32384e-71 2.80621e-70 8.36516e-70 2.46959e-69 7.22001e-69 2.09017e-68 5.9913e-68 1.70029e-67 4.77696e-67 1.32854e-66 3.65722e-66 9.96436e-66 2.68678e-65 7.16905e-65 1.89279e-64 4.94439e-64 1.27778e-63 3.2666e-63 8.2602e-63 2.06586e-62 5.10958e-62 1.24969e-61 3.02215e-61 7.22569e-61 1.70786e-60 3.99016e-60 9.21408e-60 2.10278e-59 4.74211e-59 1.05667e-58 2.32626e-58 5.05913e-58 1.0868e-57 2.30587e-57 4.83152e-57 9.99658e-57 2.04216e-56 4.11865e-56 8.19968e-56 1.61128e-55 3.12484e-55 5.98028e-55 1.12929e-54 2.10395e-54 3.8669e-54 7.01037e-54 1.2535e-53 2.2104e-53 3.84357e-53 6.5898e-53 1.11389e-52 1.8561e-52 3.04869e-52 4.93559e-52 7.87484e-52 1.23819e-51 1.91843e-51 2.92878e-51 4.4054e-51 6.52856e-51 9.53161e-51 1.37093e-50 1.94248e-50 2.71135e-50 3.72824e-50 5.05031e-50 6.73977e-50 8.86149e-50 1.14798e-49 1.46546e-49 1.84364e-49 2.28615e-49 2.79472e-49 3.36876e-49 4.00503e-49 4.69754e-49 5.4376e-49 6.21407e-49 7.01389e-49 7.82269e-49 8.62561e-49 9.40809e-49 1.01567e-48 1.08596e-48 1.15076e-48 1.20936e-48 1.26134e-48 1.3065e-48 1.34488e-48 1.37664e-48 1.40208e-48 1.42156e-48 1.43547e-48 1.44419e-48 1.44808e-48 1.44751e-48 1.44285e-48 1.43448e-48 1.42287e-48 1.40854e-48 1.39211e-48 1.3743e-48 1.35588e-48 1.33772e-48 1.32065e-48 1.30549e-48 1.29296e-48 1.28364e-48 1.27791e-48 1.27595e-48 1.27774e-48 1.28301e-48 1.29134e-48 1.30214e-48 1.31473e-48 1.32838e-48 1.34239e-48 1.3561e-48 1.36893e-48 1.38045e-48 1.39034e-48 1.39842e-48 1.40465e-48 1.40911e-48 1.41196e-48 1.41344e-48 1.41386e-48 1.41354e-48 1.4128e-48 1.41198e-48 1.41139e-48 1.4113e-48 1.41195e-48 1.41355e-48 1.41623e-48 1.4201e-48 1.42522e-48 1.43161e-48 1.43922e-48 1.44801e-48 1.45785e-48 1.46863e-48 1.48017e-48 1.4923e-48 1.5048e-48 1.51743e-48 1.52996e-48 1.54208e-48 1.55353e-48 1.56398e-48 1.57313e-48 1.58069e-48 1.58639e-48 1.59e-48 1.59135e-48 1.59033e-48 1.58691e-48 1.58113e-48 1.57305e-48 1.56282e-48 1.55056e-48 1.5364e-48 1.52042e-48 1.50263e-48 1.48299e-48 1.46136e-48 1.43755e-48 1.41128e-48 1.38228e-48 1.35022e-48 1.31481e-48 1.27581e-48 1.23301e-48 1.18632e-48 1.13573e-48 1.08133e-48 1.02336e-48 9.62167e-49 8.98216e-49 8.32104e-49 7.6453e-49 6.96281e-49 6.2821e-49 5.61197e-49 4.96119e-49 4.33806e-49 3.75002e-49 3.20337e-49 2.70292e-49 2.25189e-49 1.85183e-49 1.50265e-49 1.20283e-49 9.49591e-50 7.39203e-50 5.67299e-50 4.29159e-50 3.19987e-50 2.35132e-50 1.70265e-50 1.21494e-50 8.54246e-51 5.91839e-51 4.04033e-51 2.71787e-51 1.80157e-51 1.17678e-51 7.57506e-52 4.80557e-52 3.00468e-52 1.85172e-52 1.12489e-52 6.73655e-53 3.97734e-53 2.31533e-53 1.32904e-53 7.52338e-54 4.20026e-54 2.31297e-54 1.25644e-54 6.73337e-55 3.56032e-55 1.85762e-55 9.5649e-56 4.86078e-56 2.43826e-56 1.20739e-56 5.90279e-57 2.84939e-57 1.35824e-57 6.39389e-58 2.9724e-58 1.3638e-58 6.15402e-59 2.67809e-59 9.97424e-60 0 
0 1.66916e-79 6.36342e-79 2.24421e-78 7.80742e-78 2.69198e-77 9.2022e-77 3.11856e-76 1.04769e-75 3.489e-75 1.15167e-74 3.76783e-74 1.22168e-73 3.92554e-73 1.24994e-72 3.94361e-72 1.23278e-71 3.818e-71 1.17142e-70 3.56026e-70 1.0718e-69 3.1958e-69 9.43718e-69 2.75976e-68 7.99157e-68 2.29135e-67 6.50453e-67 1.82798e-66 5.08533e-66 1.40032e-65 3.81645e-65 1.02938e-64 2.74755e-64 7.25646e-64 1.89618e-63 4.90195e-63 1.25359e-62 3.17103e-62 7.93347e-62 1.96292e-61 4.80263e-61 1.16185e-60 2.77892e-60 6.57071e-60 1.53574e-59 3.5477e-59 8.09951e-59 1.82729e-58 4.07334e-58 8.971e-58 1.9518e-57 4.19456e-57 8.90326e-57 1.86628e-56 3.863e-56 7.89485e-56 1.5929e-55 3.17256e-55 6.23682e-55 1.21004e-54 2.31672e-54 4.37659e-54 8.1572e-54 1.49983e-53 2.72015e-53 4.86572e-53 8.58342e-53 1.49309e-52 2.56085e-52 4.33022e-52 7.21807e-52 1.18598e-51 1.92063e-51 3.06536e-51 4.82121e-51 7.47196e-51 1.14101e-50 1.71669e-50 2.5446e-50 3.71582e-50 5.3454e-50 7.57509e-50 1.05748e-49 1.45423e-49 1.97005e-49 2.6292e-49 3.45693e-49 4.47828e-49 5.71647e-49 7.19107e-49 8.91602e-49 1.08978e-48 1.31338e-48 1.5611e-48 1.83056e-48 2.11835e-48 2.42007e-48 2.73061e-48 3.04435e-48 3.35549e-48 3.65835e-48 3.94772e-48 4.21907e-48 4.46879e-48 4.69424e-48 4.89382e-48 5.06687e-48 5.21354e-48 5.33462e-48 5.43129e-48 5.50502e-48 5.55733e-48 5.58973e-48 5.60367e-48 5.60056e-48 5.58181e-48 5.54894e-48 5.50367e-48 5.44803e-48 5.38437e-48 5.31544e-48 5.24426e-48 5.17408e-48 5.10817e-48 5.04965e-48 5.00128e-48 4.96529e-48 4.94317e-48 4.93562e-48 4.9425e-48 4.96283e-48 4.99493e-48 5.03656e-48 5.08508e-48 5.13771e-48 5.19169e-48 5.24448e-48 5.29389e-48 5.33821e-48 5.37624e-48 5.4073e-48 5.43123e-48 5.44831e-48 5.4592e-48 5.46484e-48 5.46636e-48 5.46502e-48 5.46211e-48 5.45889e-48 5.45655e-48 5.45616e-48 5.45863e-48 5.46473e-48 5.47503e-48 5.48992e-48 5.50963e-48 5.53421e-48 5.56354e-48 5.59737e-48 5.63529e-48 5.6768e-48 5.72128e-48 5.76801e-48 5.81618e-48 5.86489e-48 5.91316e-48 5.95992e-48 6.00405e-48 6.04437e-48 6.07969e-48 6.10888e-48 6.1309e-48 6.14486e-48 6.15012e-48 6.14626e-48 6.13314e-48 6.11091e-48 6.07989e-48 6.04057e-48 5.99348e-48 5.93911e-48 5.87776e-48 5.80953e-48 5.73422e-48 5.65133e-48 5.5601e-48 5.45952e-48 5.34843e-48 5.22565e-48 5.09001e-48 4.94052e-48 4.77641e-48 4.59723e-48 4.40291e-48 4.19381e-48 3.97075e-48 3.73503e-48 3.48844e-48 3.23323e-48 2.97209e-48 2.70806e-48 2.44444e-48 2.18466e-48 1.93215e-48 1.69014e-48 1.46158e-48 1.24895e-48 1.05415e-48 8.78489e-49 7.22592e-49 5.86461e-49 4.69524e-49 3.7072e-49 2.88612e-49 2.21508e-49 1.67575e-49 1.24946e-49 9.18091e-50 6.64773e-50 4.7431e-50 3.33457e-50 2.30993e-50 1.57667e-50 1.0604e-50 7.02751e-51 4.58932e-51 2.95346e-51 1.87317e-51 1.17087e-51 7.21373e-52 4.38089e-52 2.62271e-52 1.54797e-52 9.00817e-53 5.16907e-53 2.92504e-53 1.63244e-53 8.98613e-54 4.87957e-54 2.61402e-54 1.38166e-54 7.20612e-55 3.709e-55 1.88415e-55 9.44758e-56 4.67649e-56 2.28539e-56 1.10277e-56 5.25464e-57 2.47266e-57 1.14905e-57 5.2701e-58 2.37721e-58 1.03416e-58 3.85063e-59 0 
0 5.87353e-79 2.23955e-78 7.89977e-78 2.74879e-77 9.47964e-77 3.24116e-76 1.09864e-75 3.6917e-75 1.22968e-74 4.05993e-74 1.32856e-73 4.30875e-73 1.38484e-72 4.4106e-72 1.39192e-71 4.35234e-71 1.34831e-70 4.13795e-70 1.25799e-69 3.78824e-69 1.12988e-68 3.33753e-68 9.76312e-68 2.82805e-67 8.11125e-67 2.30333e-66 6.47525e-66 1.802e-65 4.96381e-65 1.35333e-64 3.65156e-64 9.75007e-64 2.57604e-63 6.73401e-63 1.74154e-62 4.45547e-62 1.12749e-61 2.82199e-61 6.98516e-61 1.70977e-60 4.13804e-60 9.90169e-60 2.34227e-59 5.47692e-59 1.26579e-58 2.89116e-58 6.52563e-58 1.45535e-57 3.20673e-57 6.9801e-57 1.50079e-56 3.18707e-56 6.68389e-56 1.38416e-55 2.83019e-55 5.71309e-55 1.13843e-54 2.23907e-54 4.34626e-54 8.32527e-54 1.57351e-53 2.93414e-53 5.39741e-53 9.7935e-53 1.75263e-52 3.09314e-52 5.38292e-52 9.23641e-52 1.56247e-51 2.60555e-51 4.28281e-51 6.93839e-51 1.10778e-50 1.74292e-50 2.70208e-50 4.12747e-50 6.21169e-50 9.2098e-50 1.3452e-49 1.93554e-49 2.74339e-49 3.83033e-49 5.26803e-49 7.13725e-49 9.52571e-49 1.25248e-48 1.62249e-48 2.07097e-48 2.60493e-48 3.22934e-48 3.94643e-48 4.75511e-48 5.65053e-48 6.62391e-48 7.66268e-48 8.75084e-48 9.8697e-48 1.09988e-47 1.21172e-47 1.32044e-47 1.42415e-47 1.52124e-47 1.61042e-47 1.69076e-47 1.76172e-47 1.82309e-47 1.87495e-47 1.91762e-47 1.95155e-47 1.9773e-47 1.99542e-47 2.00648e-47 2.01101e-47 2.00951e-47 2.00248e-47 1.99046e-47 1.97407e-47 1.95401e-47 1.93114e-47 1.9064e-47 1.88089e-47 1.85575e-47 1.83215e-47 1.8112e-47 1.79389e-47 1.78101e-47 1.77309e-47 1.77039e-47 1.77285e-47 1.78011e-47 1.79158e-47 1.80646e-47 1.82379e-47 1.84259e-47 1.86186e-47 1.8807e-47 1.89833e-47 1.91414e-47 1.92768e-47 1.93874e-47 1.94725e-47 1.95331e-47 1.95716e-47 1.95913e-47 1.95964e-47 1.95913e-47 1.95806e-47 1.95688e-47 1.95602e-47 1.95586e-47 1.95673e-47 1.95889e-47 1.96255e-47 1.96786e-47 1.97489e-47 1.98365e-47 1.99412e-47 2.00619e-47 2.01973e-47 2.03455e-47 2.05043e-47 2.06712e-47 2.08433e-47 2.10173e-47 2.11898e-47 2.13569e-47 2.15146e-47 2.16588e-47 2.17851e-47 2.18896e-47 2.19684e-47 2.20186e-47 2.20376e-47 2.2024e-47 2.19774e-47 2.18983e-47 2.17879e-47 2.1648e-47 2.14804e-47 2.1287e-47 2.1069e-47 2.08266e-47 2.05593e-47 2.02653e-47 1.99418e-47 1.95852e-47 1.91914e-47 1.87562e-47 1.82752e-47 1.77448e-47 1.71622e-47 1.65256e-47 1.58345e-47 1.509e-47 1.42949e-47 1.34536e-47 1.25723e-47 1.16592e-47 1.07235e-47 9.77635e-48 8.82947e-48 7.89528e-48 6.98619e-48 6.11403e-48 5.28953e-48 4.5218e-48 3.81792e-48 3.18272e-48 2.61864e-48 2.12581e-48 1.70226e-48 1.34425e-48 1.04664e-48 8.03349e-49 6.07767e-49 4.53155e-49 3.32962e-49 2.41074e-49 1.71986e-49 1.20895e-49 8.3733e-50 5.71418e-50 3.84227e-50 2.54573e-50 1.66205e-50 1.0693e-50 6.77973e-51 4.23646e-51 2.60919e-51 1.58399e-51 9.47937e-52 5.59273e-52 3.25331e-52 1.86606e-52 1.05552e-52 5.88826e-53 3.23993e-53 1.75855e-53 9.41652e-54 4.97495e-54 2.59355e-54 1.3343e-54 6.7751e-55 3.39566e-55 1.68007e-55 8.20671e-56 3.9582e-56 1.8852e-56 8.86715e-57 4.11875e-57 1.88822e-57 8.51364e-58 3.70224e-58 1.37809e-58 0 
0 2.03863e-78 7.77448e-78 2.74289e-77 9.54605e-77 3.29279e-76 1.12607e-75 3.81782e-75 1.28317e-74 4.27514e-74 1.41183e-73 4.62115e-73 1.49909e-72 4.81936e-72 1.53533e-71 4.84659e-71 1.51588e-70 4.69736e-70 1.44203e-69 4.38528e-69 1.32095e-68 3.94108e-68 1.16452e-67 3.40763e-67 9.87405e-67 2.83297e-66 8.04749e-66 2.26316e-65 6.30042e-65 1.73616e-64 4.73521e-64 1.27815e-63 3.41413e-63 9.02393e-63 2.35989e-62 6.10564e-62 1.56269e-61 3.95619e-61 9.90616e-61 2.45311e-60 6.00717e-60 1.45453e-59 3.48206e-59 8.24072e-59 1.92783e-58 4.45759e-58 1.01863e-57 2.30027e-57 5.13258e-57 1.13148e-56 2.46411e-56 5.30074e-56 1.12623e-55 2.36311e-55 4.89623e-55 1.00164e-54 2.02297e-54 4.03316e-54 7.93653e-54 1.54134e-53 2.95394e-53 5.58587e-53 1.04212e-52 1.91796e-52 3.4818e-52 6.234e-52 1.10073e-51 1.91647e-51 3.28991e-51 5.56781e-51 9.2888e-51 1.52746e-50 2.47556e-50 3.95398e-50 6.22324e-50 9.65131e-50 1.47473e-49 2.22008e-49 3.29251e-49 4.81029e-49 6.92282e-49 9.81409e-49 1.37046e-48 1.88509e-48 2.5542e-48 3.40914e-48 4.48255e-48 5.80667e-48 7.41124e-48 9.32112e-48 1.15537e-47 1.41167e-47 1.70054e-47 2.02021e-47 2.36748e-47 2.73778e-47 3.12532e-47 3.52339e-47 3.92465e-47 4.32156e-47 4.70681e-47 5.07373e-47 5.41658e-47 5.73084e-47 6.01333e-47 6.26219e-47 6.4768e-47 6.65759e-47 6.80579e-47 6.92313e-47 7.01163e-47 7.07339e-47 7.11043e-47 7.12466e-47 7.11786e-47 7.09181e-47 7.04841e-47 6.98978e-47 6.91839e-47 6.8372e-47 6.74956e-47 6.65928e-47 6.57038e-47 6.48696e-47 6.41294e-47 6.35179e-47 6.30628e-47 6.27832e-47 6.26876e-47 6.27741e-47 6.30303e-47 6.34349e-47 6.39594e-47 6.45707e-47 6.52333e-47 6.59125e-47 6.65762e-47 6.7197e-47 6.77531e-47 6.82296e-47 6.86181e-47 6.89165e-47 6.91287e-47 6.92629e-47 6.9331e-47 6.93475e-47 6.93282e-47 6.92893e-47 6.92468e-47 6.92156e-47 6.92092e-47 6.9239e-47 6.93146e-47 6.94432e-47 6.96298e-47 6.98772e-47 7.01859e-47 7.05546e-47 7.09799e-47 7.14569e-47 7.19791e-47 7.25389e-47 7.31271e-47 7.37337e-47 7.43473e-47 7.49555e-47 7.55451e-47 7.61017e-47 7.66105e-47 7.70566e-47 7.74256e-47 7.77044e-47 7.7882e-47 7.79498e-47 7.79029e-47 7.77398e-47 7.7462e-47 7.70742e-47 7.65827e-47 7.59945e-47 7.53158e-47 7.45511e-47 7.37017e-47 7.27655e-47 7.17364e-47 7.06048e-47 6.93581e-47 6.79815e-47 6.64595e-47 6.47773e-47 6.29213e-47 6.08809e-47 5.86494e-47 5.62245e-47 5.36093e-47 5.08127e-47 4.78498e-47 4.4742e-47 4.1517e-47 3.82082e-47 3.48539e-47 3.14963e-47 2.81795e-47 2.49479e-47 2.18443e-47 1.89072e-47 1.61698e-47 1.36579e-47 1.13894e-47 9.37357e-48 7.61134e-48 6.0961e-48 4.81476e-48 3.74923e-48 2.87793e-48 2.17735e-48 1.62343e-48 1.19279e-48 8.63543e-49 6.15995e-49 4.32943e-49 2.99806e-49 2.04554e-49 1.37512e-49 9.10865e-50 5.94514e-50 3.82374e-50 2.42358e-50 1.51391e-50 9.32062e-51 5.65624e-51 3.38365e-51 1.99551e-51 1.16031e-51 6.65256e-52 3.7613e-52 2.09733e-52 1.1535e-52 6.25805e-53 3.34945e-53 1.76876e-53 9.21656e-54 4.7394e-54 2.40535e-54 1.20498e-54 5.95901e-55 2.90944e-55 1.40259e-55 6.67707e-56 3.13911e-56 1.45742e-56 6.67836e-57 3.0098e-57 1.3083e-57 4.86839e-58 0 
0 7.01266e-78 2.67479e-77 9.43872e-77 3.28563e-76 1.13358e-75 3.87748e-75 1.31491e-74 4.42047e-74 1.47311e-73 4.86602e-73 1.59313e-72 5.16943e-72 1.66233e-71 5.29722e-71 1.67264e-70 5.23305e-70 1.62208e-69 4.98106e-69 1.51522e-68 4.56566e-68 1.3626e-67 4.02758e-67 1.17895e-66 3.41731e-66 9.80808e-66 2.78713e-65 7.84095e-65 2.18366e-64 6.01963e-64 1.64243e-63 4.43506e-63 1.18515e-62 3.13376e-62 8.19866e-62 2.1221e-61 5.43367e-61 1.37622e-60 3.44754e-60 8.54117e-60 2.09252e-59 5.06904e-59 1.21407e-58 2.87461e-58 6.72809e-58 1.55646e-57 3.55853e-57 8.03985e-57 1.79484e-56 3.95873e-56 8.6257e-56 1.8565e-55 3.9465e-55 8.28508e-55 1.71753e-54 3.51547e-54 7.10379e-54 1.41702e-53 2.78991e-53 5.42109e-53 1.03948e-52 1.96668e-52 3.67102e-52 6.75973e-52 1.22776e-51 2.19935e-51 3.88528e-51 6.76789e-51 1.16236e-50 1.96807e-50 3.28481e-50 5.4039e-50 8.76177e-50 1.39999e-49 2.20431e-49 3.41978e-49 5.22721e-49 7.87155e-49 1.16773e-48 1.70647e-48 2.45646e-48 3.48308e-48 4.86465e-48 6.69228e-48 9.06852e-48 1.21046e-47 1.59162e-47 2.06173e-47 2.63128e-47 3.30901e-47 4.10098e-47 5.0097e-47 6.03341e-47 7.16554e-47 8.3945e-47 9.70386e-47 1.10729e-46 1.24776e-46 1.38918e-46 1.52887e-46 1.66425e-46 1.79295e-46 1.91298e-46 2.02276e-46 2.1212e-46 2.20769e-46 2.28204e-46 2.34446e-46 2.39542e-46 2.43557e-46 2.46566e-46 2.48645e-46 2.49867e-46 2.50299e-46 2.50005e-46 2.49048e-46 2.47492e-46 2.45411e-46 2.4289e-46 2.40032e-46 2.36953e-46 2.33784e-46 2.30667e-46 2.27743e-46 2.25149e-46 2.23007e-46 2.21413e-46 2.20433e-46 2.20098e-46 2.204e-46 2.21296e-46 2.22711e-46 2.24545e-46 2.26682e-46 2.28998e-46 2.31371e-46 2.33689e-46 2.35856e-46 2.37796e-46 2.39458e-46 2.40811e-46 2.41849e-46 2.42585e-46 2.43048e-46 2.43281e-46 2.43334e-46 2.43261e-46 2.43122e-46 2.42969e-46 2.42857e-46 2.42832e-46 2.42934e-46 2.43196e-46 2.43643e-46 2.44294e-46 2.45157e-46 2.46235e-46 2.47522e-46 2.49008e-46 2.50674e-46 2.52499e-46 2.54455e-46 2.56511e-46 2.58631e-46 2.60777e-46 2.62904e-46 2.64966e-46 2.66913e-46 2.68694e-46 2.70256e-46 2.71549e-46 2.72526e-46 2.7315e-46 2.7339e-46 2.73229e-46 2.72663e-46 2.71696e-46 2.70346e-46 2.68634e-46 2.66587e-46 2.64226e-46 2.61568e-46 2.58618e-46 2.55368e-46 2.51799e-46 2.47877e-46 2.43557e-46 2.38787e-46 2.33515e-46 2.27684e-46 2.21248e-46 2.14168e-46 2.06417e-46 1.97985e-46 1.8888e-46 1.7913e-46 1.68787e-46 1.57922e-46 1.4663e-46 1.35028e-46 1.2325e-46 1.11444e-46 9.97652e-47 8.8373e-47 7.74187e-47 6.70413e-47 5.736e-47 4.84686e-47 4.04324e-47 3.32862e-47 2.70353e-47 2.16577e-47 1.71083e-47 1.33237e-47 1.02281e-47 7.73852e-48 5.76981e-48 4.23906e-48 3.0687e-48 2.18875e-48 1.53809e-48 1.06491e-48 7.26419e-49 4.88219e-49 3.23303e-49 2.10955e-49 1.35637e-49 8.59413e-50 5.36647e-50 3.30271e-50 2.00348e-50 1.19802e-50 7.06238e-51 4.10472e-51 2.35237e-51 1.32941e-51 7.40945e-52 4.07319e-52 2.20876e-52 1.18161e-52 6.23675e-53 3.24823e-53 1.66951e-53 8.46894e-54 4.24049e-54 2.09603e-54 1.02286e-54 4.92863e-55 2.34513e-55 1.10199e-55 5.11379e-56 2.34218e-56 1.05508e-56 4.58428e-57 1.70533e-57 0 
0 2.39149e-77 9.12328e-77 3.22006e-76 1.12114e-75 3.86893e-75 1.32369e-74 4.48989e-74 1.50977e-73 5.03252e-73 1.66277e-72 5.44531e-72 1.76737e-71 5.68488e-71 1.81206e-70 5.72337e-70 1.79114e-69 5.55363e-69 1.70593e-68 5.19101e-68 1.56465e-67 4.67119e-67 1.38117e-66 4.04433e-66 1.17271e-65 3.36701e-65 9.57143e-65 2.69371e-64 7.5047e-64 2.0696e-63 5.64907e-63 1.52604e-62 4.0796e-62 1.07918e-61 2.8246e-61 7.31422e-61 1.87365e-60 4.74766e-60 1.18987e-59 2.94923e-59 7.22881e-59 1.75199e-58 4.19816e-58 9.94511e-58 2.32884e-57 5.39018e-57 1.23299e-56 2.78715e-56 6.22535e-56 1.3738e-55 2.99497e-55 6.44949e-55 1.37175e-54 2.88134e-54 5.97637e-54 1.22392e-53 2.47456e-53 4.93878e-53 9.72909e-53 1.8915e-52 3.62887e-52 6.86946e-52 1.28295e-51 2.36365e-51 4.29532e-51 7.69841e-51 1.36066e-50 2.37136e-50 4.07472e-50 6.90248e-50 1.15259e-49 1.897e-49 3.07709e-49 4.91874e-49 7.74768e-49 1.20243e-48 1.83858e-48 2.76957e-48 4.10985e-48 6.00756e-48 8.64991e-48 1.22674e-47 1.71363e-47 2.35776e-47 3.19525e-47 4.26526e-47 5.60844e-47 7.2648e-47 9.27109e-47 1.16577e-46 1.44455e-46 1.76429e-46 2.12429e-46 2.52215e-46 2.95371e-46 3.4131e-46 3.89294e-46 4.38472e-46 4.87917e-46 5.36687e-46 5.83873e-46 6.2865e-46 6.70321e-46 7.08345e-46 7.42351e-46 7.7214e-46 7.97666e-46 8.19014e-46 8.36366e-46 8.49963e-46 8.60079e-46 8.66989e-46 8.70953e-46 8.72211e-46 8.70987e-46 8.67494e-46 8.61956e-46 8.54626e-46 8.45795e-46 8.35812e-46 8.25079e-46 8.14048e-46 8.03203e-46 7.93038e-46 7.84023e-46 7.76579e-46 7.71041e-46 7.67636e-46 7.6647e-46 7.67516e-46 7.70623e-46 7.75531e-46 7.81891e-46 7.893e-46 7.97328e-46 8.05551e-46 8.13581e-46 8.21084e-46 8.27797e-46 8.3354e-46 8.38212e-46 8.41792e-46 8.44323e-46 8.4591e-46 8.46698e-46 8.46863e-46 8.46597e-46 8.46097e-46 8.45556e-46 8.45156e-46 8.45058e-46 8.45402e-46 8.46303e-46 8.47848e-46 8.50098e-46 8.53085e-46 8.56817e-46 8.61276e-46 8.66422e-46 8.72196e-46 8.7852e-46 8.85299e-46 8.92426e-46 8.99777e-46 9.07217e-46 9.14594e-46 9.21748e-46 9.28506e-46 9.34687e-46 9.40111e-46 9.44603e-46 9.48002e-46 9.50174e-46 9.51018e-46 9.50474e-46 9.48522e-46 9.45186e-46 9.40524e-46 9.34616e-46 9.27549e-46 9.19406e-46 9.10244e-46 9.00084e-46 8.88904e-46 8.76633e-46 8.63155e-46 8.48318e-46 8.31943e-46 8.13836e-46 7.93809e-46 7.71689e-46 7.47335e-46 7.20648e-46 6.91583e-46 6.60158e-46 6.26461e-46 5.90658e-46 5.52992e-46 5.13786e-46 4.73441e-46 4.32421e-46 3.91242e-46 3.50454e-46 3.10613e-46 2.72256e-46 2.35879e-46 2.01908e-46 1.7068e-46 1.42432e-46 1.17294e-46 9.52925e-47 7.63544e-47 6.03255e-47 4.69865e-47 3.60725e-47 2.72931e-47 2.03494e-47 1.49499e-47 1.08214e-47 7.71741e-48 5.42238e-48 3.75349e-48 2.55984e-48 1.72001e-48 1.13869e-48 7.42767e-49 4.77418e-49 3.02391e-49 1.88753e-49 1.1612e-49 7.04117e-50 4.20864e-50 2.47993e-50 1.44071e-50 8.25278e-51 4.66175e-51 2.59699e-51 1.42695e-51 7.73407e-52 4.13541e-52 2.18165e-52 1.13568e-52 5.83412e-53 2.95798e-53 1.48034e-53 7.31341e-54 3.56714e-54 1.71794e-54 8.17012e-55 3.83723e-55 1.77979e-55 8.14762e-56 3.66849e-56 1.59324e-56 5.92482e-57 0 
0 8.08505e-77 3.08492e-76 1.08905e-75 3.79263e-75 1.30909e-74 4.47987e-74 1.51991e-73 5.1121e-73 1.70445e-72 5.63303e-72 1.84522e-71 5.99062e-71 1.92746e-70 6.14556e-70 1.94164e-69 6.07823e-69 1.8852e-68 5.79266e-68 1.76323e-67 5.31642e-67 1.58772e-66 4.69619e-66 1.37562e-65 3.99023e-65 1.14607e-64 3.25918e-64 9.17592e-64 2.55742e-63 7.05554e-63 1.92662e-62 5.20675e-62 1.39252e-61 3.68525e-61 9.64987e-61 2.49993e-60 6.40687e-60 1.62419e-59 4.07252e-59 1.00991e-58 2.47656e-58 6.0052e-58 1.43971e-57 3.41228e-57 7.9946e-57 1.85134e-56 4.23712e-56 9.58306e-56 2.14161e-55 4.72864e-55 1.03144e-54 2.22237e-54 4.72941e-54 9.93961e-54 2.06279e-53 4.22685e-53 8.55077e-53 1.70755e-52 3.36566e-52 6.54709e-52 1.25678e-51 2.38041e-51 4.44814e-51 8.19958e-51 1.49087e-50 2.67349e-50 4.72779e-50 8.24386e-50 1.41726e-49 2.402e-49 4.01285e-49 6.60765e-49 1.07229e-48 1.7148e-48 2.70215e-48 4.1953e-48 6.41718e-48 9.66989e-48 1.43539e-47 2.09876e-47 3.02262e-47 4.28765e-47 5.99046e-47 8.24336e-47 1.11726e-46 1.4915e-46 1.96123e-46 2.54039e-46 3.24173e-46 4.07577e-46 5.04964e-46 6.16602e-46 7.42224e-46 8.80965e-46 1.03134e-45 1.19126e-45 1.35812e-45 1.52893e-45 1.70044e-45 1.86934e-45 2.03246e-45 2.18696e-45 2.33041e-45 2.46099e-45 2.57744e-45 2.67913e-45 2.76595e-45 2.83826e-45 2.89675e-45 2.94231e-45 2.97593e-45 2.99859e-45 3.01122e-45 3.01466e-45 3.0097e-45 2.99705e-45 2.97749e-45 2.95186e-45 2.92116e-45 2.88657e-45 2.84945e-45 2.81136e-45 2.77394e-45 2.73888e-45 2.7078e-45 2.68215e-45 2.66306e-45 2.65133e-45 2.6473e-45 2.65089e-45 2.66158e-45 2.67846e-45 2.70033e-45 2.72581e-45 2.75341e-45 2.78167e-45 2.80925e-45 2.83501e-45 2.85805e-45 2.87773e-45 2.89373e-45 2.90597e-45 2.91461e-45 2.91999e-45 2.92263e-45 2.92313e-45 2.92216e-45 2.92039e-45 2.91848e-45 2.91706e-45 2.91669e-45 2.91784e-45 2.92092e-45 2.92621e-45 2.93392e-45 2.94417e-45 2.95699e-45 2.9723e-45 2.98998e-45 3.00983e-45 3.03156e-45 3.05487e-45 3.07937e-45 3.10465e-45 3.13023e-45 3.15561e-45 3.18022e-45 3.20348e-45 3.22476e-45 3.24344e-45 3.25892e-45 3.27065e-45 3.27815e-45 3.2811e-45 3.27927e-45 3.2726e-45 3.26119e-45 3.24523e-45 3.225e-45 3.20082e-45 3.17297e-45 3.14166e-45 3.10698e-45 3.06884e-45 3.02702e-45 2.98113e-45 2.93062e-45 2.8749e-45 2.81328e-45 2.7451e-45 2.66976e-45 2.58674e-45 2.49567e-45 2.39636e-45 2.28885e-45 2.17339e-45 2.05052e-45 1.92104e-45 1.78606e-45 1.64692e-45 1.50523e-45 1.36278e-45 1.22147e-45 1.08325e-45 9.50008e-46 8.23499e-46 7.05229e-46 5.96405e-46 4.97885e-46 4.10147e-46 3.33303e-46 2.67123e-46 2.11083e-46 1.64429e-46 1.26246e-46 9.55227e-47 7.12199e-47 5.23197e-47 3.78678e-47 2.70023e-47 1.89691e-47 1.31282e-47 8.95119e-48 6.01291e-48 3.97953e-48 2.59503e-48 1.6674e-48 1.05573e-48 6.58736e-49 4.05088e-49 2.45529e-49 1.46693e-49 8.63997e-50 5.01706e-50 2.87253e-50 1.62182e-50 9.03045e-51 4.9594e-51 2.68664e-51 1.43581e-51 7.57072e-52 3.93895e-52 2.02243e-52 1.02486e-52 5.12628e-53 2.53124e-53 1.23397e-53 5.93971e-54 2.82331e-54 1.32533e-54 6.14397e-55 2.81119e-55 1.26512e-55 5.492e-56 2.04161e-56 0 
0 2.70956e-76 1.03404e-75 3.65121e-75 1.27183e-74 4.39093e-74 1.503e-73 5.10055e-73 1.71596e-72 5.72274e-72 1.89181e-71 6.19872e-71 2.01302e-70 6.47868e-70 2.06628e-69 6.53021e-69 2.04489e-68 6.34435e-68 1.95006e-67 5.93778e-67 1.79094e-66 5.35042e-66 1.58311e-65 4.63897e-65 1.34612e-64 3.86779e-64 1.10034e-63 3.09913e-63 8.64106e-63 2.38492e-62 6.51513e-62 1.76149e-61 4.71307e-61 1.24785e-60 3.26898e-60 8.47265e-60 2.17241e-59 5.50986e-59 1.38222e-58 3.42932e-58 8.41384e-58 2.04124e-57 4.89625e-57 1.16108e-56 2.72172e-56 6.30619e-56 1.44406e-55 3.26782e-55 7.30694e-55 1.61426e-54 3.52311e-54 7.59532e-54 1.61728e-53 3.40094e-53 7.06214e-53 1.44794e-52 2.93084e-52 5.85616e-52 1.15495e-51 2.24799e-51 4.31775e-51 8.18279e-51 1.52995e-50 2.82188e-50 5.13372e-50 9.2111e-50 1.62978e-49 2.84337e-49 4.89083e-49 8.2933e-49 1.38619e-48 2.28364e-48 3.70763e-48 5.93184e-48 9.35124e-48 1.45244e-47 2.2225e-47 3.35021e-47 4.97461e-47 7.27577e-47 1.04812e-46 1.48712e-46 2.07811e-46 2.86007e-46 3.87681e-46 5.17572e-46 6.80592e-46 8.81553e-46 1.12485e-45 1.41409e-45 1.75168e-45 2.13847e-45 2.57345e-45 3.05352e-45 3.57339e-45 4.12575e-45 4.70146e-45 5.29001e-45 5.88012e-45 6.46032e-45 7.01964e-45 7.54826e-45 8.03795e-45 8.48247e-45 8.87772e-45 9.22167e-45 9.5142e-45 9.75674e-45 9.95187e-45 1.01028e-44 1.02132e-44 1.02865e-44 1.03259e-44 1.03344e-44 1.03147e-44 1.02693e-44 1.02007e-44 1.01118e-44 1.00059e-44 9.88695e-45 9.75964e-45 9.62914e-45 9.50107e-45 9.38116e-45 9.27491e-45 9.1872e-45 9.12196e-45 9.08185e-45 9.06807e-45 9.0803e-45 9.11674e-45 9.17432e-45 9.24893e-45 9.33581e-45 9.42989e-45 9.5262e-45 9.62016e-45 9.70785e-45 9.78623e-45 9.85316e-45 9.90749e-45 9.94897e-45 9.97815e-45 9.99627e-45 1.0005e-44 1.00065e-44 1.0003e-44 9.99675e-45 9.99009e-45 9.98511e-45 9.98372e-45 9.98754e-45 9.99792e-45 1.00159e-44 1.00421e-44 1.0077e-44 1.01206e-44 1.01728e-44 1.02331e-44 1.03007e-44 1.03748e-44 1.04542e-44 1.05377e-44 1.06239e-44 1.07112e-44 1.07978e-44 1.08818e-44 1.09612e-44 1.10338e-44 1.10976e-44 1.11505e-44 1.11906e-44 1.12164e-44 1.12266e-44 1.12205e-44 1.11979e-44 1.11592e-44 1.1105e-44 1.10363e-44 1.09543e-44 1.08599e-44 1.07538e-44 1.06365e-44 1.05075e-44 1.03663e-44 1.02114e-44 1.0041e-44 9.8531e-45 9.64531e-45 9.41534e-45 9.16104e-45 8.88058e-45 8.5726e-45 8.23633e-45 7.87173e-45 7.47958e-45 7.06156e-45 6.62031e-45 6.15948e-45 5.68366e-45 5.19829e-45 4.70951e-45 4.2239e-45 3.74824e-45 3.28911e-45 2.85263e-45 2.44413e-45 2.06788e-45 1.72695e-45 1.4231e-45 1.1568e-45 9.27319e-46 7.32906e-46 5.70992e-46 4.38431e-46 3.31746e-46 2.4734e-46 1.81691e-46 1.31491e-46 9.3749e-47 6.5847e-47 4.55621e-47 3.10581e-47 2.08574e-47 1.37999e-47 8.99587e-48 5.77812e-48 3.65709e-48 2.28098e-48 1.4021e-48 8.49458e-49 5.07286e-49 2.98643e-49 1.73333e-49 9.91933e-50 5.59761e-50 3.11521e-50 1.70994e-50 9.25833e-51 4.94526e-51 2.60614e-51 1.35521e-51 6.9545e-52 3.52226e-52 1.76085e-52 8.68994e-53 4.23402e-53 2.03694e-53 9.67693e-54 4.54014e-54 2.1036e-54 9.62004e-55 4.3271e-55 1.87756e-55 6.97721e-56 0 
0 9.00097e-76 3.43567e-75 1.2134e-74 4.22764e-74 1.45992e-73 4.99847e-73 1.6967e-72 5.70965e-72 1.90467e-71 6.29816e-71 2.06423e-70 6.70547e-70 2.15872e-69 6.88699e-69 2.17722e-68 6.81996e-68 2.11661e-67 6.50798e-67 1.9823e-66 5.98104e-66 1.78747e-65 5.2908e-65 1.55093e-64 4.50214e-64 1.2941e-63 3.68302e-63 1.03775e-62 2.89469e-62 7.99267e-62 2.18438e-61 5.90849e-61 1.5816e-60 4.1894e-60 1.09801e-59 2.8472e-59 7.30383e-59 1.85337e-58 4.65174e-58 1.1547e-57 2.83451e-57 6.88025e-57 1.65122e-56 3.91775e-56 9.18874e-56 2.13019e-55 4.8807e-55 1.10509e-54 2.47244e-54 5.4653e-54 1.19349e-53 2.57451e-53 5.48518e-53 1.15415e-52 2.39806e-52 4.91965e-52 9.96409e-52 1.99214e-51 3.93127e-51 7.65642e-51 1.47146e-50 2.79031e-50 5.2202e-50 9.63392e-50 1.75368e-49 3.14832e-49 5.57368e-49 9.72949e-49 1.67446e-48 2.84087e-48 4.75086e-48 7.83057e-48 1.27196e-47 2.03595e-47 3.21098e-47 4.98939e-47 7.63769e-47 1.15173e-46 1.71073e-46 2.50284e-46 3.60649e-46 5.11822e-46 7.15363e-46 9.84697e-46 1.3349e-45 1.78228e-45 2.34371e-45 3.03567e-45 3.87321e-45 4.86854e-45 6.02976e-45 7.35955e-45 8.85406e-45 1.05022e-44 1.22855e-44 1.41783e-44 1.61489e-44 1.81607e-44 2.01748e-44 2.21516e-44 2.40535e-44 2.58471e-44 2.75043e-44 2.90044e-44 3.03339e-44 3.14866e-44 3.24627e-44 3.32681e-44 3.39121e-44 3.44066e-44 3.47642e-44 3.49974e-44 3.51176e-44 3.51348e-44 3.50583e-44 3.48963e-44 3.46575e-44 3.43513e-44 3.39889e-44 3.35833e-44 3.31501e-44 3.27067e-44 3.2272e-44 3.18652e-44 3.15049e-44 3.12076e-44 3.09864e-44 3.08504e-44 3.08036e-44 3.08449e-44 3.09682e-44 3.11629e-44 3.14153e-44 3.1709e-44 3.20271e-44 3.23525e-44 3.26699e-44 3.2966e-44 3.32303e-44 3.34559e-44 3.36388e-44 3.37782e-44 3.3876e-44 3.39364e-44 3.39652e-44 3.39694e-44 3.39567e-44 3.3935e-44 3.39119e-44 3.38946e-44 3.38894e-44 3.3902e-44 3.39367e-44 3.39972e-44 3.40856e-44 3.42034e-44 3.43507e-44 3.4527e-44 3.47306e-44 3.49591e-44 3.52095e-44 3.5478e-44 3.57605e-44 3.6052e-44 3.63471e-44 3.664e-44 3.69243e-44 3.7193e-44 3.7439e-44 3.76552e-44 3.78345e-44 3.79705e-44 3.8058e-44 3.80929e-44 3.80728e-44 3.79971e-44 3.78669e-44 3.76845e-44 3.74535e-44 3.71776e-44 3.68602e-44 3.65041e-44 3.61104e-44 3.56784e-44 3.52056e-44 3.46876e-44 3.41182e-44 3.34903e-44 3.27961e-44 3.20275e-44 3.11771e-44 3.02384e-44 2.92063e-44 2.80779e-44 2.68526e-44 2.55324e-44 2.41227e-44 2.26319e-44 2.10721e-44 1.94586e-44 1.78098e-44 1.61465e-44 1.44914e-44 1.28677e-44 1.12983e-44 9.80441e-45 8.40464e-45 7.11405e-45 5.94354e-45 4.89948e-45 3.98381e-45 3.19427e-45 2.52506e-45 1.96747e-45 1.51083e-45 1.14323e-45 8.52345e-46 6.26077e-46 4.5305e-46 3.22964e-46 2.26801e-46 1.56898e-46 1.06925e-46 7.1786e-47 4.74809e-47 3.09413e-47 1.98665e-47 1.2569e-47 7.83622e-48 4.81476e-48 2.9157e-48 1.74041e-48 1.02409e-48 5.9409e-49 3.39807e-49 1.91658e-49 1.06606e-49 5.84848e-50 3.16489e-50 1.68957e-50 8.89908e-51 4.62501e-51 2.37208e-51 1.20072e-51 5.99926e-52 2.95903e-52 1.44093e-52 6.92826e-53 3.2896e-53 1.54253e-53 7.14315e-54 3.26488e-54 1.46778e-54 6.36571e-55 2.36471e-55 0 