# vtk DataFile Version 3.0
Gray-Scott Simulation Output
ASCII
DATASET STRUCTURED_POINTS
DIMENSIONS 256 256 1
SPACING 1.0 1.0 1.0
ORIGIN 0 0 0
POINT_DATA 65536
SCALARS u double
LOOKUP_TABLE default
0 0 0 0 0 0 0 0 0 0 0 0 0 0 0 0 0 0 0 0 0 0 0 0 0 0 0 0 0 0 0 0 0 0 0 0 0 0 0 0 0 0 0 0 0 0 0 0 0 0 0 0 0 0 0 0 0 0 0 0 0 0 0 0 0 0 0 0 0 0 0 0 0 0 0 0 0 0 0 0 0 0 0 0 0 0 0 0 0 0 0 0 0 0 0 0 0 0 0 0 0 0 0 0 0 0 0 0 0 0 0 0 0 0 0 0 0 0 0 0 0 0 0 0 0 0 0 0 0 0 0 0 0 0 0 0 0 0 0 0 0 0 0 0 0 0 0 0 0 0 0 0 0 0 0 0 0 0 0 0 0 0 0 0 0 0 0 0 0 0 0 0 0 0 0 0 0 0 0 0 0 0 0 0 0 0 0 0 0 0 0 0 0 0 0 0 0 0 0 0 0 0 0 0 0 0 0 0 0 0 0 0 0 0 0 0 0 0 0 0 0 0 0 0 0 0 0 0 0 0 0 0 0 0 0 0 0 0 0 0 0 0 0 0 0 0 0 0 0 0 0 0 0 0 0 0 
0 1.81239e-138 1.9401e-137 2.03804e-136 2.11852e-135 2.17908e-134 2.21764e-133 2.23277e-132 2.22374e-131 2.19062e-130 2.13424e-129 2.05621e-128 1.95879e-127 1.84482e-126 1.71759e-125 1.58061e-124 1.43755e-123 1.29198e-122 1.14727e-121 1.00647e-120 8.7217e-120 7.46457e-119 6.30887e-118 5.26478e-117 4.33736e-116 3.52715e-115 2.83078e-114 2.24184e-113 1.75166e-112 1.35011e-111 1.02634e-110 7.69373e-110 5.68631e-109 4.14278e-108 2.97468e-107 2.10471e-106 1.4671e-105 1.0073e-104 6.81076e-104 4.53396e-103 2.97105e-102 1.91599e-101 1.21571e-100 7.5877e-100 4.65727e-99 2.8105e-98 1.66706e-97 9.7167e-97 5.56373e-96 3.12873e-95 1.72743e-94 9.36109e-94 4.97753e-93 2.5961e-92 1.32771e-91 6.65597e-91 3.26957e-90 1.57319e-89 7.41175e-89 3.41771e-88 1.54188e-87 6.80274e-87 2.93391e-86 1.23636e-85 5.08829e-85 2.0442e-84 8.01278e-84 3.06284e-83 1.14108e-82 4.14115e-82 1.46314e-81 5.02987e-81 1.68138e-80 5.46186e-80 1.72304e-79 5.27517e-79 1.56626e-78 4.50676e-78 1.2558e-77 3.3861e-77 8.82818e-77 2.22377e-76 5.40765e-76 1.26845e-75 2.86771e-75 6.24361e-75 1.30806e-74 2.63496e-74 5.09968e-74 9.47613e-74 1.6895e-73 2.88859e-73 4.73397e-73 7.43452e-73 1.11875e-72 1.61336e-72 2.23078e-72 2.95991e-72 3.77369e-72 4.63157e-72 5.48574e-72 6.28983e-72 7.0074e-72 7.61765e-72 8.11657e-72 8.51383e-72 8.82702e-72 9.0758e-72 9.27795e-72 9.44785e-72 9.59662e-72 9.73258e-72 9.86068e-72 9.98091e-72 1.00864e-71 1.01625e-71 1.01873e-71 1.01354e-71 9.98227e-72 9.71117e-72 9.31864e-72 8.8191e-72 8.24627e-72 7.65063e-72 7.09278e-72 6.6337e-72 6.32379e-72 6.19363e-72 6.24862e-72 6.46902e-72 6.81518e-72 7.23633e-72 7.68064e-72 8.10397e-72 8.47553e-72 8.77956e-72 9.0134e-72 9.18313e-72 9.29841e-72 9.36834e-72 9.39915e-72 9.39431e-72 9.35617e-72 9.28819e-72 9.19665e-72 9.0909e-72 8.98222e-72 8.88165e-72 8.79763e-72 8.73456e-72 8.69252e-72 8.66863e-72 8.65926e-72 8.66253e-72 8.68004e-72 8.7172e-72 8.78184e-72 8.88137e-72 9.01941e-72 9.19299e-72 9.39149e-72 9.59814e-72 9.7939e-72 9.96297e-72 1.00981e-71 1.02038e-71 1.02964e-71 1.03992e-71 1.05348e-71 1.07167e-71 1.09416e-71 1.1187e-71 1.14145e-71 1.15786e-71 1.16394e-71 1.15734e-71 1.13812e-71 1.10881e-71 1.0738e-71 1.03827e-71 1.00701e-71 9.83397e-72 9.68827e-72 9.6259e-72 9.62118e-72 9.63539e-72 9.62391e-72 9.5443e-72 9.36399e-72 9.06634e-72 8.6534e-72 8.1444e-72 7.57007e-72 6.96444e-72 6.35646e-72 5.76415e-72 5.19302e-72 4.63884e-72 4.09336e-72 3.55067e-72 3.01168e-72 2.48544e-72 1.9871e-72 1.53375e-72 1.13992e-72 8.14286e-73 5.58392e-73 3.67328e-73 2.31733e-73 1.40196e-73 8.13571e-74 4.5304e-74 2.42205e-74 1.24395e-74 6.14172e-75 2.91715e-75 1.33395e-75 5.87718e-76 2.49681e-76 1.02361e-76 4.05275e-77 1.55086e-77 5.74026e-78 2.05661e-78 7.1376e-79 2.40127e-79 7.83646e-80 2.48246e-80 7.63863e-81 2.28451e-81 6.64484e-82 1.88082e-82 5.18365e-83 1.39184e-83 3.64289e-84 9.29891e-85 2.31615e-85 5.63199e-86 1.33759e-86 3.10422e-87 7.0427e-88 1.56268e-88 3.39252e-89 7.20896e-90 1.49999e-90 3.05728e-91 6.10613e-92 1.19547e-92 2.29507e-93 4.32199e-94 7.98624e-95 1.44846e-95 2.57925e-96 4.50736e-97 7.53299e-98 0 
0 1.93865e-137 2.07446e-136 2.17833e-135 2.26347e-134 2.32727e-133 2.36755e-132 2.38278e-131 2.37223e-130 2.336e-129 2.27501e-128 2.191e-127 2.0864e-126 1.96427e-125 1.82811e-124 1.68169e-123 1.52891e-122 1.37357e-121 1.21928e-120 1.06924e-119 9.26224e-119 7.92429e-118 6.69497e-117 5.58495e-116 4.59947e-115 3.73895e-114 2.99969e-113 2.37477e-112 1.85486e-111 1.42915e-110 1.08604e-109 8.13844e-109 6.0129e-108 4.37921e-107 3.14337e-106 2.22331e-105 1.54925e-104 1.06334e-103 7.18728e-103 4.78303e-102 3.13323e-101 2.01992e-100 1.28123e-99 7.99412e-99 4.90517e-98 2.95916e-97 1.75469e-96 1.02243e-95 5.85258e-95 3.29017e-94 1.81601e-93 9.83821e-93 5.22969e-92 2.72682e-91 1.39417e-90 6.98715e-90 3.4313e-89 1.65056e-88 7.77411e-88 3.58385e-87 1.61641e-86 7.1297e-86 3.07414e-85 1.29512e-84 5.32886e-84 2.14033e-83 8.38761e-83 3.20538e-82 1.19392e-81 4.33194e-81 1.53022e-80 5.25937e-80 1.75774e-79 5.70878e-79 1.80059e-78 5.51157e-78 1.63615e-77 4.70705e-77 1.31139e-76 3.53543e-76 9.21607e-76 2.32113e-75 5.64361e-75 1.32362e-74 2.99205e-74 6.51356e-74 1.36446e-73 2.74828e-73 5.31848e-73 9.88178e-73 1.76168e-72 3.01177e-72 4.9355e-72 7.75056e-72 1.16624e-71 1.68179e-71 2.32531e-71 3.08526e-71 3.93344e-71 4.82758e-71 5.71787e-71 6.55598e-71 7.30392e-71 7.93998e-71 8.45997e-71 8.87397e-71 9.20029e-71 9.45946e-71 9.67e-71 9.84694e-71 1.00019e-70 1.01435e-70 1.02769e-70 1.04022e-70 1.05121e-70 1.05913e-70 1.06171e-70 1.0563e-70 1.04036e-70 1.01214e-70 9.71272e-71 9.19271e-71 8.59643e-71 7.97643e-71 7.39583e-71 6.91807e-71 6.59564e-71 6.46034e-71 6.5178e-71 6.74746e-71 7.108e-71 7.54658e-71 8.00925e-71 8.45005e-71 8.83693e-71 9.15348e-71 9.39693e-71 9.57358e-71 9.69352e-71 9.76618e-71 9.7981e-71 9.7929e-71 9.75305e-71 9.68219e-71 9.58688e-71 9.47687e-71 9.36388e-71 9.25936e-71 9.17212e-71 9.10666e-71 9.06307e-71 9.03831e-71 9.02862e-71 9.03204e-71 9.05022e-71 9.08881e-71 9.15594e-71 9.25936e-71 9.40281e-71 9.58323e-71 9.78958e-71 1.00044e-70 1.0208e-70 1.03838e-70 1.05243e-70 1.06344e-70 1.07308e-70 1.08378e-70 1.09789e-70 1.11682e-70 1.14021e-70 1.16573e-70 1.18938e-70 1.20644e-70 1.21276e-70 1.20589e-70 1.1859e-70 1.15543e-70 1.11903e-70 1.08209e-70 1.04958e-70 1.02502e-70 1.00986e-70 1.00335e-70 1.00284e-70 1.00429e-70 1.00307e-70 9.94751e-71 9.75957e-71 9.44954e-71 9.01952e-71 8.48949e-71 7.89142e-71 7.2607e-71 6.62742e-71 6.01034e-71 5.41521e-71 4.8376e-71 4.26896e-71 3.70313e-71 3.14111e-71 2.59236e-71 2.07266e-71 1.59985e-71 1.1891e-71 8.49466e-72 5.8255e-72 3.83243e-72 2.41789e-72 1.4629e-72 8.48997e-73 4.72803e-73 2.52792e-73 1.29844e-73 6.41133e-74 3.04551e-74 1.39279e-74 6.13706e-75 2.60752e-75 1.06912e-75 4.23348e-76 1.62023e-76 5.99787e-77 2.14922e-77 7.46011e-78 2.51016e-78 8.19317e-79 2.59591e-79 7.9891e-80 2.38976e-80 6.95229e-81 1.96823e-81 5.42564e-82 1.45712e-82 3.81455e-83 9.7392e-84 2.42636e-84 5.90132e-85 1.40189e-85 3.25421e-86 7.38479e-87 1.63899e-87 3.55909e-88 7.56489e-89 1.57447e-89 3.20992e-90 6.41274e-91 1.25584e-91 2.41165e-92 4.54283e-93 8.39672e-94 1.52335e-94 2.71341e-95 4.74322e-96 7.92944e-97 0 
0 2.03493e-136 2.17663e-135 2.28471e-134 2.37308e-133 2.43901e-132 2.48025e-131 2.49523e-130 2.48322e-129 2.44434e-128 2.37961e-127 2.29084e-126 2.18064e-125 2.05221e-124 1.90922e-123 1.75564e-122 1.59553e-121 1.43289e-120 1.27145e-119 1.11458e-118 9.65136e-118 8.25414e-117 6.97107e-116 5.81314e-115 4.78564e-114 3.88886e-113 3.11883e-112 2.4682e-111 1.92715e-110 1.48432e-109 1.12756e-108 8.44659e-108 6.23838e-107 4.54184e-106 3.25897e-105 2.30428e-104 1.60512e-103 1.10132e-102 7.44144e-102 4.95051e-101 3.24186e-100 2.08927e-99 1.32479e-98 8.26318e-98 5.06863e-97 3.05679e-96 1.81201e-95 1.0555e-94 6.04001e-94 3.3945e-93 1.87303e-92 1.01441e-91 5.39068e-91 2.80994e-90 1.43625e-89 7.196e-89 3.53287e-88 1.69894e-87 7.99984e-87 3.68692e-86 1.66245e-85 7.3309e-85 3.16008e-84 1.331e-83 5.47512e-83 2.19855e-82 8.61373e-82 3.29104e-81 1.22555e-80 4.44572e-80 1.57008e-79 5.39523e-79 1.80278e-78 5.85391e-78 1.84601e-77 5.64956e-77 1.67682e-76 4.82321e-76 1.34353e-75 3.6215e-75 9.439e-75 2.37693e-74 5.77848e-74 1.35508e-73 3.06277e-73 6.66671e-73 1.39639e-72 2.8123e-72 5.44184e-72 1.01101e-71 1.80223e-71 3.08088e-71 5.04842e-71 7.92743e-71 1.1928e-70 1.72001e-70 2.37809e-70 3.1552e-70 4.02254e-70 4.93689e-70 5.84732e-70 6.70439e-70 7.46926e-70 8.11971e-70 8.65145e-70 9.07473e-70 9.40832e-70 9.67318e-70 9.88832e-70 1.00691e-69 1.02274e-69 1.03721e-69 1.05085e-69 1.06365e-69 1.07488e-69 1.08297e-69 1.08561e-69 1.08008e-69 1.0638e-69 1.03497e-69 9.9323e-70 9.40122e-70 8.79228e-70 8.15916e-70 7.56631e-70 7.07853e-70 6.74943e-70 6.61147e-70 6.67038e-70 6.90514e-70 7.27357e-70 7.72167e-70 8.19434e-70 8.64465e-70 9.03986e-70 9.3632e-70 9.61185e-70 9.79223e-70 9.91463e-70 9.98871e-70 1.00211e-69 1.00157e-69 9.97482e-70 9.90237e-70 9.80501e-70 9.69272e-70 9.57747e-70 9.47093e-70 9.38205e-70 9.31541e-70 9.27106e-70 9.24591e-70 9.23608e-70 9.23957e-70 9.25809e-70 9.29739e-70 9.3658e-70 9.47121e-70 9.61747e-70 9.80144e-70 1.00119e-69 1.0231e-69 1.04386e-69 1.0618e-69 1.07614e-69 1.08738e-69 1.09723e-69 1.10815e-69 1.12257e-69 1.14188e-69 1.16575e-69 1.19178e-69 1.2159e-69 1.23331e-69 1.23975e-69 1.23274e-69 1.21235e-69 1.18127e-69 1.14414e-69 1.10646e-69 1.07329e-69 1.04823e-69 1.03275e-69 1.02609e-69 1.02555e-69 1.027e-69 1.02572e-69 1.0172e-69 9.97979e-70 9.66296e-70 9.22363e-70 8.68215e-70 8.07116e-70 7.42673e-70 6.77958e-70 6.14887e-70 5.54043e-70 4.94978e-70 4.36818e-70 3.78937e-70 3.21439e-70 2.65293e-70 2.12117e-70 1.63737e-70 1.21705e-70 8.69472e-71 5.96302e-71 3.92314e-71 2.47527e-71 1.49772e-71 8.69266e-72 4.84128e-72 2.58868e-72 1.32976e-72 6.56656e-73 3.11954e-73 1.42679e-73 6.28753e-74 2.67174e-74 1.09558e-74 4.3388e-75 1.66075e-75 6.1487e-76 2.20358e-76 7.64994e-77 2.57444e-77 8.40431e-78 2.66325e-78 8.19779e-79 2.45263e-79 7.13651e-80 2.02078e-80 5.57159e-81 1.49662e-81 3.9188e-82 1.00075e-82 2.49376e-83 6.06666e-84 1.4415e-84 3.34697e-85 7.59713e-86 1.68654e-86 3.66328e-87 7.78835e-88 1.6214e-88 3.3065e-89 6.6075e-90 1.29434e-90 2.48628e-91 4.68475e-92 8.66154e-93 1.57185e-93 2.80065e-94 4.89718e-95 8.18917e-96 0 
0 2.1136e-135 2.25991e-134 2.37119e-133 2.46193e-132 2.52934e-131 2.57109e-130 2.58562e-129 2.57217e-128 2.53092e-127 2.46294e-126 2.37016e-125 2.25528e-124 2.12164e-123 1.97306e-122 1.81366e-121 1.64764e-120 1.47912e-119 1.31199e-118 1.14969e-117 9.95165e-117 8.50781e-116 7.18267e-115 5.98738e-114 4.92729e-113 4.00252e-112 3.20882e-111 2.5385e-110 1.98133e-109 1.52551e-108 1.15844e-107 8.67487e-107 6.40474e-106 4.66134e-105 3.34357e-104 2.36328e-103 1.64566e-102 1.12875e-101 7.62425e-101 5.07044e-100 3.3193e-99 2.13847e-98 1.35555e-97 8.45231e-97 5.18299e-96 3.12477e-95 1.85173e-94 1.0783e-93 6.1686e-93 3.46571e-92 1.91175e-91 1.03507e-90 5.49887e-90 2.86551e-89 1.46423e-88 7.33415e-88 3.59969e-87 1.73061e-86 8.14673e-86 3.75362e-85 1.69209e-84 7.45968e-84 3.21479e-83 1.35371e-82 5.56718e-82 2.23499e-81 8.75447e-81 3.34405e-80 1.24501e-79 4.51536e-79 1.59434e-78 5.47749e-78 1.82991e-77 5.94084e-77 1.87308e-76 5.73137e-76 1.7008e-75 4.89139e-75 1.3623e-74 3.67154e-74 9.56801e-74 2.40908e-73 5.85585e-73 1.37305e-72 3.10301e-72 6.75355e-72 1.41443e-71 2.84834e-71 5.51109e-71 1.02379e-70 1.82487e-70 3.11936e-70 5.11116e-70 8.02552e-70 1.2075e-69 1.74115e-69 2.40724e-69 3.19381e-69 4.0717e-69 4.99717e-69 5.91869e-69 6.78622e-69 7.56043e-69 8.21881e-69 8.75699e-69 9.18536e-69 9.52288e-69 9.7908e-69 1.00084e-68 1.01912e-68 1.03513e-68 1.04977e-68 1.06356e-68 1.0765e-68 1.08786e-68 1.09604e-68 1.09871e-68 1.09312e-68 1.07665e-68 1.04751e-68 1.00532e-68 9.51633e-69 8.90083e-69 8.26092e-69 7.66176e-69 7.16886e-69 6.83638e-69 6.69715e-69 6.75694e-69 6.99447e-69 7.36711e-69 7.82025e-69 8.2982e-69 8.75352e-69 9.1531e-69 9.48e-69 9.73136e-69 9.91366e-69 1.00373e-68 1.0112e-68 1.01447e-68 1.0139e-68 1.00975e-68 1.00242e-68 9.92577e-69 9.81233e-69 9.69598e-69 9.58848e-69 9.49886e-69 9.43171e-69 9.38707e-69 9.36177e-69 9.3519e-69 9.35543e-69 9.3741e-69 9.41372e-69 9.48272e-69 9.58906e-69 9.73664e-69 9.9223e-69 1.01347e-68 1.03559e-68 1.05655e-68 1.07466e-68 1.08915e-68 1.10051e-68 1.11046e-68 1.12151e-68 1.13607e-68 1.15559e-68 1.17969e-68 1.20597e-68 1.23032e-68 1.24789e-68 1.25439e-68 1.24731e-68 1.22673e-68 1.19535e-68 1.15786e-68 1.11982e-68 1.08633e-68 1.06102e-68 1.04537e-68 1.03864e-68 1.03806e-68 1.0395e-68 1.03817e-68 1.02953e-68 1.01008e-68 9.78036e-69 9.33611e-69 8.78861e-69 8.1708e-69 7.51911e-69 6.86457e-69 6.22651e-69 5.61083e-69 5.01301e-69 4.42423e-69 3.83817e-69 3.25592e-69 2.68731e-69 2.14874e-69 1.65872e-69 1.23297e-69 8.80893e-70 6.04167e-70 3.9751e-70 2.50821e-70 1.51775e-70 8.8095e-71 4.9067e-71 2.62386e-71 1.34793e-71 6.65689e-72 3.16274e-72 1.44668e-72 6.37584e-73 2.70955e-73 1.11121e-73 4.4012e-74 1.68485e-74 6.23872e-75 2.23614e-75 7.7641e-76 2.61324e-76 8.53234e-77 2.70426e-77 8.32542e-78 2.49125e-78 7.25022e-79 2.05336e-79 5.66253e-80 1.52136e-80 3.98438e-81 1.01772e-81 2.53659e-82 6.17223e-83 1.46692e-83 3.40679e-84 7.73478e-85 1.71752e-85 3.7315e-86 7.93543e-87 1.65245e-87 3.37071e-88 6.73763e-89 1.32019e-89 2.53665e-90 4.781e-91 8.84203e-92 1.60507e-92 2.86068e-93 5.00364e-94 8.36957e-95 0 
0 2.17225e-134 2.32172e-133 2.43508e-132 2.52728e-131 2.59546e-130 2.63728e-129 2.65115e-128 2.63634e-127 2.59307e-126 2.52245e-125 2.42649e-124 2.308e-123 2.17041e-122 2.01765e-121 1.85394e-120 1.6836e-119 1.51084e-118 1.33962e-117 1.17347e-116 1.01537e-115 8.67736e-115 7.32313e-114 6.10224e-113 5.01999e-112 4.07634e-111 3.26684e-110 2.58347e-109 2.01571e-108 1.55143e-107 1.17771e-106 8.81609e-106 6.50674e-105 4.73394e-104 3.39448e-103 2.39845e-102 1.66959e-101 1.14478e-100 7.72992e-100 5.13901e-99 3.36309e-98 2.16598e-97 1.37254e-96 8.55554e-96 5.24463e-95 3.16094e-94 1.87258e-93 1.09011e-92 6.23425e-92 3.50155e-91 1.93094e-90 1.04515e-89 5.55084e-89 2.89176e-88 1.47723e-87 7.39719e-87 3.62964e-86 1.74453e-85 8.21011e-85 3.78184e-84 1.70437e-83 7.51193e-83 3.23651e-82 1.36252e-81 5.60211e-81 2.24849e-80 8.80536e-80 3.36275e-79 1.2517e-78 4.53867e-78 1.60224e-77 5.50354e-77 1.83826e-76 5.96684e-76 1.88093e-75 5.75441e-75 1.70735e-74 4.90944e-74 1.36711e-73 3.68396e-73 9.59903e-73 2.41657e-72 5.87329e-72 1.37697e-71 3.11152e-71 6.77134e-71 1.41801e-70 2.85529e-70 5.52405e-70 1.02611e-69 1.82889e-69 3.12602e-69 5.12177e-69 8.04177e-69 1.2099e-68 1.74454e-68 2.41185e-68 3.19987e-68 4.07936e-68 5.00655e-68 5.92977e-68 6.79893e-68 7.57459e-68 8.23419e-68 8.77333e-68 9.2024e-68 9.5404e-68 9.80865e-68 1.00264e-67 1.02094e-67 1.03697e-67 1.05162e-67 1.06542e-67 1.07838e-67 1.08974e-67 1.09793e-67 1.1006e-67 1.095e-67 1.07853e-67 1.04937e-67 1.00715e-67 9.53446e-68 8.91869e-68 8.27855e-68 7.67922e-68 7.18624e-68 6.8538e-68 6.71473e-68 6.77478e-68 7.01267e-68 7.3857e-68 7.83926e-68 8.3176e-68 8.77326e-68 9.17312e-68 9.50024e-68 9.75172e-68 9.93408e-68 1.00577e-67 1.01323e-67 1.01648e-67 1.01589e-67 1.01173e-67 1.00439e-67 9.94539e-68 9.83197e-68 9.7157e-68 9.60836e-68 9.51892e-68 9.45195e-68 9.40746e-68 9.38228e-68 9.37247e-68 9.37601e-68 9.39463e-68 9.43417e-68 9.50304e-68 9.60922e-68 9.75661e-68 9.94206e-68 1.01542e-67 1.03752e-67 1.05847e-67 1.07657e-67 1.09105e-67 1.10241e-67 1.11237e-67 1.12342e-67 1.13799e-67 1.1575e-67 1.18159e-67 1.20786e-67 1.23219e-67 1.24975e-67 1.25623e-67 1.24916e-67 1.22859e-67 1.19723e-67 1.15978e-67 1.12176e-67 1.08829e-67 1.06299e-67 1.04734e-67 1.04059e-67 1.04e-67 1.04141e-67 1.04005e-67 1.03137e-67 1.01189e-67 9.79807e-68 9.35346e-68 8.80555e-68 8.18724e-68 7.53496e-68 6.87972e-68 6.24084e-68 5.62422e-68 5.02533e-68 4.43535e-68 3.848e-68 3.2644e-68 2.69442e-68 2.15451e-68 1.66325e-68 1.23639e-68 8.83375e-69 6.059e-69 3.98672e-69 2.51568e-69 1.52236e-69 8.83684e-70 4.92226e-70 2.63236e-70 1.35241e-70 6.67951e-71 3.17375e-71 1.45185e-71 6.39921e-72 2.71976e-72 1.11551e-72 4.41874e-73 1.69176e-73 6.2651e-74 2.24589e-74 7.79901e-75 2.62537e-75 8.57322e-76 2.71765e-76 8.368e-77 2.50442e-77 7.28982e-78 2.06495e-78 5.69558e-79 1.53054e-79 4.00923e-80 1.02428e-80 2.55348e-81 6.2147e-82 1.47735e-82 3.4318e-83 7.7934e-84 1.73095e-84 3.76161e-85 8.00147e-86 1.66663e-86 3.40052e-87 6.79902e-88 1.33258e-88 2.56116e-89 4.82854e-90 8.93249e-91 1.62196e-91 2.89161e-92 5.05923e-93 8.46496e-94 0 
0 2.20885e-133 2.35992e-132 2.47419e-131 2.56686e-130 2.63508e-129 2.6765e-128 2.68953e-127 2.67348e-126 2.62858e-125 2.55601e-124 2.45784e-123 2.33693e-122 2.19678e-121 2.0414e-120 1.87505e-119 1.70213e-118 1.52691e-117 1.35336e-116 1.18506e-115 1.02503e-114 8.75667e-114 7.38736e-113 6.15353e-112 5.06035e-111 4.10764e-110 3.29074e-109 2.60145e-108 2.02902e-107 1.56112e-106 1.18466e-105 8.86498e-105 6.54057e-104 4.75692e-103 3.40979e-102 2.40845e-101 1.67599e-100 1.14878e-99 7.7544e-99 5.15359e-98 3.37154e-97 2.17072e-96 1.3751e-95 8.56879e-95 5.2511e-94 3.16386e-93 1.87374e-92 1.09045e-91 6.23431e-91 3.50054e-90 1.92982e-89 1.04424e-88 5.54441e-88 2.8876e-87 1.47469e-86 7.38246e-86 3.62143e-85 1.74013e-84 8.18722e-84 3.77032e-83 1.69875e-82 7.48532e-82 3.22426e-81 1.35704e-80 5.57829e-80 2.23842e-79 8.76397e-79 3.34622e-78 1.24529e-77 4.51448e-77 1.59338e-76 5.47206e-76 1.8274e-75 5.93052e-75 1.86916e-74 5.71742e-74 1.6961e-73 4.87633e-73 1.35769e-72 3.65805e-72 9.53023e-72 2.39894e-71 5.82973e-71 1.3666e-70 3.08775e-70 6.71891e-70 1.4069e-69 2.83266e-69 5.47983e-69 1.01782e-68 1.81399e-68 3.10036e-68 5.07946e-68 7.97496e-68 1.1998e-67 1.72992e-67 2.39158e-67 3.17291e-67 4.04495e-67 4.96427e-67 5.87969e-67 6.7415e-67 7.51061e-67 8.16463e-67 8.69916e-67 9.12451e-67 9.45951e-67 9.7253e-67 9.94106e-67 1.01223e-66 1.0281e-66 1.04261e-66 1.05629e-66 1.06912e-66 1.08038e-66 1.08849e-66 1.09113e-66 1.08559e-66 1.06927e-66 1.0404e-66 9.98597e-67 9.45418e-67 8.84452e-67 8.21077e-67 7.61746e-67 7.1295e-67 6.80054e-67 6.66307e-67 6.72277e-67 6.95855e-67 7.32812e-67 7.7774e-67 8.25118e-67 8.70248e-67 9.09849e-67 9.42243e-67 9.67145e-67 9.85197e-67 9.97428e-67 1.00481e-66 1.008e-66 1.0074e-66 1.00327e-66 9.95989e-67 9.86237e-67 9.75014e-67 9.63517e-67 9.52908e-67 9.44074e-67 9.37465e-67 9.33078e-67 9.30597e-67 9.29632e-67 9.29983e-67 9.31822e-67 9.35726e-67 9.42529e-67 9.53021e-67 9.67589e-67 9.85921e-67 1.0069e-66 1.02875e-66 1.04946e-66 1.06736e-66 1.08169e-66 1.09294e-66 1.1028e-66 1.11374e-66 1.12816e-66 1.14746e-66 1.17129e-66 1.19727e-66 1.22133e-66 1.23869e-66 1.2451e-66 1.2381e-66 1.21776e-66 1.18675e-66 1.14971e-66 1.11212e-66 1.07902e-66 1.05398e-66 1.0385e-66 1.03181e-66 1.03119e-66 1.03256e-66 1.03118e-66 1.02256e-66 1.00325e-66 9.71468e-67 9.2743e-67 8.73165e-67 8.11925e-67 7.47313e-67 6.82397e-67 6.19087e-67 5.57969e-67 4.98591e-67 4.40083e-67 3.81825e-67 3.2393e-67 2.67381e-67 2.13812e-67 1.65066e-67 1.22708e-67 8.76765e-68 6.01395e-68 3.95728e-68 2.49724e-68 1.51128e-68 8.77307e-69 4.88704e-69 2.6137e-69 1.34291e-69 6.63312e-70 3.15196e-70 1.442e-70 6.35636e-71 2.7018e-71 1.10826e-71 4.39047e-72 1.68113e-72 6.22644e-73 2.23231e-73 7.75288e-74 2.6102e-74 8.52492e-75 2.70274e-75 8.32342e-76 2.49149e-76 7.25342e-77 2.05501e-77 5.66919e-78 1.52373e-78 3.99219e-79 1.02013e-79 2.54368e-80 6.19217e-81 1.47232e-81 3.42088e-82 7.77041e-83 1.72625e-83 3.75232e-84 7.98367e-85 1.66334e-85 3.39469e-86 6.78913e-87 1.331e-87 2.5588e-88 4.82543e-89 8.92923e-90 1.62183e-90 2.89221e-91 5.06175e-92 8.47153e-93 0 
0 2.22202e-132 2.37308e-131 2.487e-130 2.57915e-129 2.64668e-128 2.68724e-127 2.69928e-126 2.68213e-125 2.63608e-124 2.56233e-123 2.46297e-122 2.34092e-121 2.1997e-120 2.04334e-119 1.87613e-118 1.70248e-117 1.52665e-116 1.35263e-115 1.18399e-114 1.02372e-113 8.74231e-113 7.37257e-112 6.13899e-111 5.04657e-110 4.09499e-109 3.27944e-108 2.59159e-107 2.02063e-106 1.55412e-105 1.17893e-104 8.8191e-104 6.50448e-103 4.72906e-102 3.38867e-101 2.39273e-100 1.66449e-99 1.14052e-98 7.69613e-98 5.1132e-97 3.34403e-96 2.15232e-95 1.36301e-94 8.4908e-94 5.20169e-93 3.13313e-92 1.85497e-91 1.0792e-90 6.16817e-90 3.46238e-89 1.90823e-88 1.03226e-87 5.47925e-87 2.85287e-86 1.45656e-85 7.28969e-85 3.57497e-84 1.71735e-83 8.07798e-83 3.71908e-82 1.67525e-81 7.37995e-81 3.17811e-80 1.33731e-79 5.49591e-79 2.20488e-78 8.63076e-78 3.29466e-77 1.22585e-76 4.44312e-76 1.56789e-75 5.38351e-75 1.7975e-74 5.83246e-74 1.83794e-73 5.62102e-73 1.66725e-72 4.79264e-72 1.3342e-71 3.59427e-71 9.36284e-71 2.35651e-70 5.72596e-70 1.34213e-69 3.03214e-69 6.59728e-69 1.38131e-68 2.7809e-68 5.37928e-68 9.99079e-68 1.78047e-67 3.0429e-67 4.98507e-67 7.82642e-67 1.17741e-66 1.69758e-66 2.34682e-66 3.11348e-66 3.96914e-66 4.87121e-66 5.76946e-66 6.61511e-66 7.3698e-66 8.01154e-66 8.53599e-66 8.95326e-66 9.28182e-66 9.54244e-66 9.75395e-66 9.93159e-66 1.00872e-65 1.02294e-65 1.03635e-65 1.04893e-65 1.05996e-65 1.06791e-65 1.0705e-65 1.06506e-65 1.04907e-65 1.02077e-65 9.79817e-66 9.27712e-66 8.67981e-66 8.05892e-66 7.4777e-66 6.99975e-66 6.67762e-66 6.54314e-66 6.60188e-66 6.83315e-66 7.19548e-66 7.63589e-66 8.10027e-66 8.54257e-66 8.93068e-66 9.24813e-66 9.49213e-66 9.66897e-66 9.78872e-66 9.86088e-66 9.89206e-66 9.88602e-66 9.84538e-66 9.77395e-66 9.67838e-66 9.56849e-66 9.45598e-66 9.35223e-66 9.2659e-66 9.20135e-66 9.15854e-66 9.13435e-66 9.12496e-66 9.1284e-66 9.14637e-66 9.18452e-66 9.25102e-66 9.35361e-66 9.49609e-66 9.67542e-66 9.88064e-66 1.00944e-65 1.02971e-65 1.04723e-65 1.06126e-65 1.07227e-65 1.08193e-65 1.09265e-65 1.10678e-65 1.12568e-65 1.14901e-65 1.17443e-65 1.19798e-65 1.21496e-65 1.22123e-65 1.21438e-65 1.19447e-65 1.16413e-65 1.12788e-65 1.09109e-65 1.05869e-65 1.03419e-65 1.01902e-65 1.01245e-65 1.01183e-65 1.01314e-65 1.01176e-65 1.00329e-65 9.84343e-66 9.53186e-66 9.10024e-66 8.5684e-66 7.96818e-66 7.33484e-66 6.69841e-66 6.07759e-66 5.4781e-66 4.89551e-66 4.32132e-66 3.74947e-66 3.18109e-66 2.62587e-66 2.09987e-66 1.62119e-66 1.20523e-66 8.61187e-67 5.90736e-67 3.88733e-67 2.45322e-67 1.48472e-67 8.61935e-68 4.8017e-68 2.56822e-68 1.31963e-68 6.51855e-69 3.09774e-69 1.41731e-69 6.24803e-70 2.65599e-70 1.08957e-70 4.31686e-71 1.65311e-71 6.12338e-72 2.19562e-72 7.62641e-73 2.56796e-73 8.38812e-74 2.65976e-74 8.19229e-75 2.45262e-75 7.14146e-76 2.02363e-76 5.58364e-77 1.50102e-77 3.93343e-78 1.00531e-78 2.50724e-79 6.10474e-80 1.45184e-80 3.37406e-81 7.66578e-82 1.70341e-82 3.70353e-83 7.88179e-84 1.64252e-84 3.35305e-85 6.70758e-86 1.31536e-86 2.52941e-87 4.77129e-88 8.83149e-89 1.60452e-89 2.86217e-90 5.01061e-91 8.38825e-92 0 
0 2.2111e-131 2.36051e-130 2.47287e-129 2.56349e-128 2.62959e-127 2.66886e-126 2.67979e-125 2.66175e-124 2.61504e-123 2.54091e-122 2.44146e-121 2.3196e-120 2.17884e-119 2.0232e-118 1.85696e-117 1.68445e-116 1.50992e-115 1.33732e-114 1.17015e-113 1.01139e-112 8.63386e-112 7.27847e-111 6.05845e-110 4.97859e-109 4.03839e-108 3.23296e-107 2.55396e-106 1.99059e-105 1.53049e-104 1.1606e-103 8.67899e-103 6.39896e-102 4.65077e-101 3.33145e-100 2.35154e-99 1.63529e-98 1.12015e-97 7.55619e-97 5.0186e-96 3.28111e-95 2.11115e-94 1.33652e-93 8.32318e-93 5.09743e-92 3.06939e-91 1.81668e-90 1.05661e-89 6.03729e-89 3.38793e-88 1.86666e-87 1.00949e-86 5.35688e-86 2.78838e-85 1.42325e-84 7.12108e-84 3.49136e-83 1.67675e-82 7.88503e-82 3.62934e-81 1.63443e-80 7.19841e-80 3.09921e-79 1.30381e-78 5.35705e-78 2.1487e-77 8.40907e-77 3.20937e-76 1.19387e-75 4.32639e-75 1.52641e-74 5.24013e-74 1.74932e-73 5.67517e-73 1.78808e-72 5.46768e-72 1.62152e-71 4.66053e-71 1.29725e-70 3.49426e-70 9.10119e-70 2.29039e-69 5.56469e-69 1.30419e-68 2.94615e-68 6.4096e-68 1.3419e-67 2.70136e-67 5.22504e-67 9.70369e-67 1.7292e-66 2.95513e-66 4.84105e-66 7.60003e-66 1.14331e-65 1.64838e-65 2.27875e-65 3.02313e-65 3.85392e-65 4.72978e-65 5.60194e-65 6.42305e-65 7.15582e-65 7.7789e-65 8.28808e-65 8.69312e-65 9.01198e-65 9.26483e-65 9.46999e-65 9.64228e-65 9.79316e-65 9.93112e-65 1.00612e-64 1.01832e-64 1.02902e-64 1.03672e-64 1.03923e-64 1.03396e-64 1.01845e-64 9.91014e-65 9.51305e-65 9.00789e-65 8.42882e-65 7.82694e-65 7.26356e-65 6.80033e-65 6.48822e-65 6.35807e-65 6.41525e-65 6.6397e-65 6.99121e-65 7.41838e-65 7.86875e-65 8.29769e-65 8.67405e-65 8.98187e-65 9.21844e-65 9.38984e-65 9.50586e-65 9.57569e-65 9.60576e-65 9.59974e-65 9.56021e-65 9.49087e-65 9.39821e-65 9.29174e-65 9.1828e-65 9.08241e-65 8.99892e-65 8.93654e-65 8.89521e-65 8.87188e-65 8.86283e-65 8.86617e-65 8.88354e-65 8.92042e-65 8.98474e-65 9.084e-65 9.22188e-65 9.39545e-65 9.59411e-65 9.80107e-65 9.9973e-65 1.0167e-64 1.03029e-64 1.04096e-64 1.05033e-64 1.06072e-64 1.07441e-64 1.09272e-64 1.11531e-64 1.13993e-64 1.16273e-64 1.17917e-64 1.18524e-64 1.17861e-64 1.15933e-64 1.12995e-64 1.09485e-64 1.05923e-64 1.02785e-64 1.00412e-64 9.89418e-65 9.83042e-65 9.82418e-65 9.83661e-65 9.82295e-65 9.74054e-65 9.55662e-65 9.2544e-65 8.8358e-65 8.32005e-65 7.73796e-65 7.12369e-65 6.50631e-65 5.90393e-65 5.32208e-65 4.75649e-65 4.19889e-65 3.64344e-65 3.09128e-65 2.55184e-65 2.04075e-65 1.57561e-65 1.17139e-65 8.37043e-66 5.74199e-66 3.77867e-66 2.38476e-66 1.44336e-66 8.37966e-67 4.66841e-67 2.49707e-67 1.28315e-67 6.33874e-68 3.0125e-68 1.3784e-68 6.077e-69 2.5835e-69 1.05992e-69 4.19979e-70 1.60844e-70 5.95854e-71 2.13676e-71 7.42282e-72 2.49972e-72 8.1663e-73 2.58978e-73 7.97792e-74 2.38881e-74 6.95675e-75 1.97162e-75 5.44106e-76 1.46295e-76 3.83439e-77 9.8019e-78 2.44507e-78 5.95457e-79 1.41643e-79 3.29246e-80 7.48207e-81 1.66296e-81 3.61644e-82 7.69828e-83 1.60467e-83 3.27659e-84 6.5563e-85 1.28602e-85 2.47365e-86 4.66737e-87 8.64148e-88 1.57044e-88 2.80215e-89 4.90693e-90 8.21692e-91 0 
0 2.17621e-130 2.32238e-129 2.43198e-128 2.52013e-127 2.58411e-126 2.62169e-125 2.63141e-124 2.6127e-123 2.56588e-122 2.49219e-121 2.39375e-120 2.27341e-119 2.13466e-118 1.98143e-117 1.81794e-116 1.64845e-115 1.4771e-114 1.30777e-113 1.14388e-112 9.88324e-112 8.4339e-111 7.10734e-110 5.91389e-109 4.85806e-108 3.93922e-107 3.15246e-106 2.4895e-105 1.93967e-104 1.49082e-103 1.13013e-102 8.44827e-102 6.22674e-101 4.52407e-100 3.23961e-99 2.28596e-98 1.58916e-97 1.0882e-96 7.33826e-96 4.8723e-95 3.18444e-94 2.04831e-93 1.29633e-92 8.07042e-92 4.94112e-91 2.97437e-90 1.75992e-89 1.0233e-88 5.84522e-88 3.2792e-87 1.80624e-86 9.76543e-86 5.18061e-85 2.6959e-84 1.37567e-83 6.88124e-83 3.3729e-82 1.61945e-81 7.61366e-81 3.50358e-80 1.57742e-79 6.94568e-79 2.98972e-78 1.25747e-77 5.1655e-77 2.07143e-76 8.105e-76 3.0927e-75 1.15025e-74 4.16752e-74 1.47009e-73 5.04589e-73 1.68419e-72 5.46298e-72 1.72096e-71 5.26163e-71 1.56019e-70 4.48364e-70 1.24785e-69 3.36078e-69 8.75251e-69 2.2024e-68 5.35035e-68 1.25383e-67 2.83214e-67 6.16105e-67 1.28976e-66 2.59621e-66 5.02134e-66 9.32484e-66 1.6616e-65 2.83947e-65 4.65139e-65 7.30201e-65 1.09845e-64 1.58366e-64 2.18924e-64 2.90434e-64 3.70246e-64 4.54389e-64 5.38176e-64 6.17059e-64 6.87457e-64 7.47313e-64 7.96223e-64 8.35124e-64 8.6574e-64 8.90012e-64 9.097e-64 9.26232e-64 9.40709e-64 9.53947e-64 9.66424e-64 9.78133e-64 9.884e-64 9.9579e-64 9.98194e-64 9.93134e-64 9.78257e-64 9.51936e-64 9.13845e-64 8.6539e-64 8.09849e-64 7.52122e-64 6.98092e-64 6.53673e-64 6.23754e-64 6.11291e-64 6.168e-64 6.38353e-64 6.72092e-64 7.13085e-64 7.56301e-64 7.97457e-64 8.33566e-64 8.63097e-64 8.85789e-64 9.02226e-64 9.13346e-64 9.20032e-64 9.22902e-64 9.22309e-64 9.18505e-64 9.11846e-64 9.02957e-64 8.92751e-64 8.82315e-64 8.72704e-64 8.64715e-64 8.58752e-64 8.54803e-64 8.52577e-64 8.51715e-64 8.52036e-64 8.53697e-64 8.57225e-64 8.63379e-64 8.7288e-64 8.86082e-64 9.02703e-64 9.21728e-64 9.41551e-64 9.60348e-64 9.76606e-64 9.8963e-64 9.9986e-64 1.00884e-63 1.01881e-63 1.03194e-63 1.04949e-63 1.07114e-63 1.09473e-63 1.11657e-63 1.13232e-63 1.13813e-63 1.13177e-63 1.1133e-63 1.08516e-63 1.05154e-63 1.01741e-63 9.87345e-64 9.64597e-64 9.50503e-64 9.44379e-64 9.4376e-64 9.44926e-64 9.43588e-64 9.35658e-64 9.17997e-64 8.88991e-64 8.48827e-64 7.99344e-64 7.43494e-64 6.84549e-64 6.25295e-64 5.67467e-64 5.11593e-64 4.57264e-64 4.03688e-64 3.50307e-64 2.97233e-64 2.45376e-64 1.96239e-64 1.51517e-64 1.1265e-64 8.04995e-65 5.52236e-65 3.63429e-65 2.29374e-65 1.38833e-65 8.06055e-66 4.49085e-66 2.40222e-66 1.23447e-66 6.09864e-67 2.89856e-67 1.32636e-67 5.84796e-68 2.48631e-68 1.02013e-68 4.04248e-69 1.54834e-69 5.73645e-70 2.05733e-70 7.14771e-71 2.40736e-71 7.86555e-72 2.49473e-72 7.68619e-73 2.3018e-73 6.70437e-74 1.9004e-74 5.24539e-75 1.41058e-75 3.6978e-76 9.45449e-77 2.35886e-77 5.74578e-78 1.36704e-78 3.17834e-79 7.22429e-80 1.60602e-80 3.49342e-81 7.43814e-82 1.55082e-82 3.1674e-83 6.3394e-84 1.24379e-84 2.39304e-85 4.51646e-86 8.36433e-87 1.52049e-87 2.71377e-88 4.7535e-89 7.96214e-90 0 