# vtk DataFile Version 3.0
Gray-Scott Simulation Output
ASCII
DATASET STRUCTURED_POINTS
DIMENSIONS 256 256 1
SPACING 1.0 1.0 1.0
ORIGIN 0 0 0
POINT_DATA 65536
SCALARS u double
LOOKUP_TABLE default
0 0 0 0 0 0 0 0 0 0 0 0 0 0 0 0 0 0 0 0 0 0 0 0 0 0 0 0 0 0 0 0 0 0 0 0 0 0 0 0 0 0 0 0 0 0 0 0 0 0 0 0 0 0 0 0 0 0 0 0 0 0 0 0 0 0 0 0 0 0 0 0 0 0 0 0 0 0 0 0 0 0 0 0 0 0 0 0 0 0 0 0 0 0 0 0 0 0 0 0 0 0 0 0 0 0 0 0 0 0 0 0 0 0 0 0 0 0 0 0 0 0 0 0 0 0 0 0 0 0 0 0 0 0 0 0 0 0 0 0 0 0 0 0 0 0 0 0 0 0 0 0 0 0 0 0 0 0 0 0 0 0 0 0 0 0 0 0 0 0 0 0 0 0 0 0 0 0 0 0 0 0 0 0 0 0 0 0 0 0 0 0 0 0 0 0 0 0 0 0 0 0 0 0 0 0 0 0 0 0 0 0 0 0 0 0 0 0 0 0 0 0 0 0 0 0 0 0 0 0 0 0 0 0 0 0 0 0 0 0 0 0 0 0 0 0 0 0 0 0 0 0 0 0 0 0 
0 5.69101e-159 8.28853e-158 1.18895e-156 1.68727e-155 2.36867e-154 3.28911e-153 4.51712e-152 6.13488e-151 8.23881e-150 1.09393e-148 1.43591e-147 1.86308e-146 2.38918e-145 3.02778e-144 3.79145e-143 4.69068e-142 5.73271e-141 6.92019e-140 8.24996e-139 9.71181e-138 1.12876e-136 1.29506e-135 1.46657e-134 1.63898e-133 1.8073e-132 1.9661e-131 2.10974e-130 2.23266e-129 2.32977e-128 2.39675e-127 2.43036e-126 2.42872e-125 2.39142e-124 2.31965e-123 2.21609e-122 2.08477e-121 1.93082e-120 1.76012e-119 1.57891e-118 1.39344e-117 1.20957e-116 1.03245e-115 8.6636e-115 7.14496e-114 5.78968e-113 4.60829e-112 3.60187e-111 2.76368e-110 2.08106e-109 1.53737e-108 1.11384e-107 7.91164e-107 5.50752e-106 3.75604e-105 2.50853e-104 1.64004e-103 1.04918e-102 6.56486e-102 4.01589e-101 2.4006e-100 1.40162e-99 7.98902e-99 4.44306e-98 2.40969e-97 1.27374e-96 6.55827e-96 3.2871e-95 1.60278e-94 7.59762e-94 3.49881e-93 1.56416e-92 6.78306e-92 2.85104e-91 1.16051e-90 4.57068e-90 1.74018e-89 6.39842e-89 2.26974e-88 7.75968e-88 2.55387e-87 8.08238e-87 2.45666e-86 7.16262e-86 2.0006e-85 5.34601e-85 1.36485e-84 3.32442e-84 7.71451e-84 1.70313e-83 3.57211e-83 7.1082e-83 1.34031e-82 2.39212e-82 4.03737e-82 6.4401e-82 9.70695e-82 1.38301e-81 1.86464e-81 2.38382e-81 2.899e-81 3.36907e-81 3.76426e-81 4.07331e-81 4.30345e-81 4.4737e-81 4.60516e-81 4.71324e-81 4.80525e-81 4.88325e-81 4.94908e-81 5.00776e-81 5.06688e-81 5.13281e-81 5.20604e-81 5.27844e-81 5.33346e-81 5.34901e-81 5.30194e-81 5.17296e-81 4.9518e-81 4.6417e-81 4.26254e-81 3.85074e-81 3.45483e-81 3.12666e-81 2.91021e-81 2.8316e-81 2.89344e-81 3.07538e-81 3.34027e-81 3.64357e-81 3.94311e-81 4.20676e-81 4.4167e-81 4.56968e-81 4.67373e-81 4.74256e-81 4.78933e-81 4.82218e-81 4.84259e-81 4.847e-81 4.83034e-81 4.78984e-81 4.72759e-81 4.65097e-81 4.57093e-81 4.49887e-81 4.44333e-81 4.40787e-81 4.39059e-81 4.38574e-81 4.38634e-81 4.38737e-81 4.38825e-81 4.39386e-81 4.41357e-81 4.45824e-81 4.53608e-81 4.6486e-81 4.78825e-81 4.93876e-81 5.07882e-81 5.18825e-81 5.255e-81 5.2804e-81 5.28066e-81 5.28344e-81 5.31982e-81 5.41358e-81 5.57096e-81 5.77499e-81 5.98726e-81 6.15772e-81 6.23971e-81 6.20481e-81 6.05232e-81 5.80951e-81 5.52315e-81 5.24541e-81 5.02006e-81 4.87341e-81 4.81197e-81 4.82518e-81 4.88997e-81 4.97496e-81 5.0441e-81 5.06148e-81 4.9979e-81 4.83809e-81 4.58541e-81 4.26136e-81 3.89931e-81 3.53449e-81 3.19362e-81 2.88829e-81 2.61402e-81 2.35524e-81 2.09384e-81 1.81777e-81 1.52615e-81 1.22935e-81 9.44568e-82 6.89541e-82 4.77092e-82 3.12467e-82 1.9363e-82 1.13545e-82 6.30429e-83 3.31699e-83 1.65556e-83 7.84794e-84 3.5377e-84 1.51849e-84 6.21449e-85 2.42819e-85 9.07023e-86 3.24321e-86 1.11149e-86 3.65548e-87 1.15507e-87 3.51076e-88 1.02755e-88 2.89917e-89 7.89336e-90 2.07583e-90 5.27804e-91 1.29866e-91 3.09481e-92 7.14904e-93 1.60207e-93 3.48546e-94 7.36718e-95 1.51393e-95 3.02666e-96 5.89048e-97 1.11669e-97 2.06331e-98 3.71783e-99 6.53649e-100 1.1219e-100 1.88077e-101 3.08102e-102 4.93442e-103 7.72948e-104 1.18474e-104 1.77761e-105 2.61191e-106 3.75975e-107 5.30394e-108 7.33554e-109 9.94968e-110 1.32395e-110 1.72848e-111 2.1818e-112 0 
0 8.28422e-158 1.20584e-156 1.72873e-155 2.45187e-154 3.44007e-153 4.77411e-152 6.5528e-151 8.89454e-150 1.19381e-148 1.5842e-147 2.07828e-146 2.69501e-145 3.45407e-144 4.37484e-143 5.47517e-142 6.76993e-141 8.2692e-140 9.97651e-139 1.18869e-137 1.39854e-136 1.62455e-135 1.86287e-134 2.10841e-133 2.35496e-132 2.59539e-131 2.82189e-130 3.02638e-129 3.20096e-128 3.33836e-127 3.43247e-126 3.47872e-125 3.47449e-124 3.41929e-123 3.31489e-122 3.1652e-121 2.97605e-120 2.75481e-119 2.50993e-118 2.25035e-117 1.98496e-116 1.72212e-115 1.46919e-114 1.2322e-113 1.01568e-112 8.22597e-112 6.54409e-111 5.11229e-110 3.92062e-109 2.95074e-108 2.17874e-107 1.57773e-106 1.12011e-105 7.79352e-105 5.31243e-104 3.54626e-103 2.31736e-102 1.48177e-101 9.26714e-101 5.66625e-100 3.38554e-99 1.97576e-98 1.12563e-97 6.25724e-97 3.39205e-96 1.7922e-95 9.22355e-95 4.62092e-94 2.25215e-93 1.06712e-92 4.91212e-92 2.19505e-91 9.51496e-91 3.99766e-90 1.62658e-89 6.40372e-89 2.43711e-88 8.95746e-88 3.17631e-87 1.0855e-86 3.57131e-86 1.12983e-85 3.43296e-85 1.00058e-84 2.79382e-84 7.46332e-84 1.90483e-83 4.63833e-83 1.07606e-82 2.37499e-82 4.98004e-82 9.9076e-82 1.86777e-81 3.33286e-81 5.62419e-81 8.96996e-81 1.35184e-80 1.92587e-80 2.59635e-80 3.31908e-80 4.03628e-80 4.69071e-80 5.24095e-80 5.67129e-80 5.99176e-80 6.22878e-80 6.41173e-80 6.56207e-80 6.69005e-80 6.79857e-80 6.89025e-80 6.97206e-80 7.05452e-80 7.14645e-80 7.2485e-80 7.34933e-80 7.42593e-80 7.44758e-80 7.38205e-80 7.20256e-80 6.89482e-80 6.46336e-80 5.93584e-80 5.36294e-80 4.81221e-80 4.35574e-80 4.05473e-80 3.9455e-80 4.03166e-80 4.28491e-80 4.65354e-80 5.0756e-80 5.49242e-80 5.85932e-80 6.1515e-80 6.36441e-80 6.50925e-80 6.60502e-80 6.67003e-80 6.71558e-80 6.74375e-80 6.74964e-80 6.72623e-80 6.66973e-80 6.58308e-80 6.47655e-80 6.36537e-80 6.26535e-80 6.18836e-80 6.13927e-80 6.11543e-80 6.10878e-80 6.10966e-80 6.11107e-80 6.11222e-80 6.11993e-80 6.14724e-80 6.20924e-80 6.31733e-80 6.47364e-80 6.66765e-80 6.87678e-80 7.07141e-80 7.22353e-80 7.31639e-80 7.35185e-80 7.35242e-80 7.3565e-80 7.40727e-80 7.53772e-80 7.7565e-80 8.04002e-80 8.3349e-80 8.57165e-80 8.68547e-80 8.63692e-80 8.425e-80 8.08764e-80 7.68975e-80 7.30383e-80 6.99065e-80 6.78679e-80 6.7013e-80 6.7195e-80 6.80939e-80 6.92733e-80 7.02321e-80 7.04712e-80 6.95846e-80 6.73601e-80 6.38437e-80 5.93341e-80 5.42955e-80 4.92172e-80 4.44714e-80 4.02194e-80 3.63993e-80 3.2795e-80 2.91548e-80 2.53108e-80 2.12508e-80 1.71188e-80 1.31542e-80 9.60358e-81 6.64545e-81 4.35295e-81 2.69784e-81 1.58228e-81 8.78671e-82 4.62398e-82 2.30838e-82 1.09449e-82 4.93488e-83 2.11872e-83 8.67319e-84 3.3898e-84 1.26658e-84 4.53018e-85 1.55303e-85 5.10922e-86 1.61496e-86 4.9102e-87 1.43764e-87 4.05767e-88 1.10515e-88 2.90747e-89 7.3954e-90 1.82034e-90 4.33975e-91 1.00289e-91 2.24835e-92 4.89356e-93 1.03479e-93 2.12737e-94 4.25489e-95 8.28451e-96 1.57124e-96 2.90449e-97 5.23593e-98 9.20976e-99 1.58146e-99 2.65243e-100 4.3472e-101 6.96559e-102 1.09164e-102 1.67404e-103 2.51298e-104 3.69424e-105 5.32036e-106 7.50926e-107 1.03908e-107 1.41008e-108 1.87727e-109 2.4521e-110 3.09674e-111 0 
0 1.1877e-156 1.7278e-155 2.47558e-154 3.5091e-153 4.92056e-152 6.82478e-151 9.36207e-150 1.27004e-148 1.70365e-147 2.25947e-146 2.96245e-145 3.83937e-144 4.91793e-143 6.22537e-142 7.78672e-141 9.62265e-140 1.1747e-138 1.41644e-137 1.68673e-136 1.98338e-135 2.30262e-134 2.63892e-133 2.98509e-132 3.3323e-131 3.67047e-130 3.98858e-129 4.27525e-128 4.51938e-127 4.7108e-126 4.84094e-125 4.9035e-124 4.89486e-123 4.81449e-122 4.66496e-121 4.4519e-120 4.1836e-119 3.87053e-118 3.52459e-117 3.15838e-116 2.78443e-115 2.41446e-114 2.05876e-113 1.72576e-112 1.42177e-111 1.15089e-110 9.15109e-110 7.14522e-109 5.47687e-108 4.11992e-107 3.04048e-106 2.20064e-105 1.56156e-104 1.08597e-103 7.3988e-103 4.93657e-102 3.22429e-101 2.06068e-100 1.28815e-99 7.87242e-99 4.70148e-98 2.74243e-97 1.56168e-96 8.67719e-96 4.70174e-95 2.48305e-94 1.27732e-93 6.39642e-93 3.11612e-92 1.47584e-91 6.7906e-91 3.03319e-90 1.31425e-89 5.51949e-89 2.24487e-88 8.83432e-88 3.36082e-87 1.23477e-86 4.37683e-86 1.49522e-85 4.91751e-85 1.55517e-84 4.72372e-84 1.37632e-83 3.84174e-83 1.02595e-82 2.61769e-82 6.37235e-82 1.47793e-81 3.26112e-81 6.8365e-81 1.35979e-80 2.56292e-80 4.57243e-80 7.71465e-80 1.23022e-79 1.85381e-79 2.64072e-79 3.55981e-79 4.55051e-79 5.53365e-79 6.43079e-79 7.18518e-79 7.77525e-79 8.21465e-79 8.53958e-79 8.79027e-79 8.9962e-79 9.17147e-79 9.32016e-79 9.44588e-79 9.55818e-79 9.67143e-79 9.79765e-79 9.93767e-79 1.0076e-78 1.0181e-78 1.02106e-78 1.01208e-78 9.87487e-79 9.45322e-79 8.86211e-79 8.13943e-79 7.35466e-79 6.60029e-79 5.97511e-79 5.56293e-79 5.41348e-79 5.53171e-79 5.87881e-79 6.38396e-79 6.96227e-79 7.53339e-79 8.03614e-79 8.43653e-79 8.72833e-79 8.92684e-79 9.05805e-79 9.14703e-79 9.20921e-79 9.2475e-79 9.25521e-79 9.22283e-79 9.14522e-79 9.02644e-79 8.8806e-79 8.72853e-79 8.59186e-79 8.48677e-79 8.41986e-79 8.38747e-79 8.37852e-79 8.37978e-79 8.38167e-79 8.38316e-79 8.39359e-79 8.43083e-79 8.51556e-79 8.66337e-79 8.87715e-79 9.14255e-79 9.42866e-79 9.69497e-79 9.90318e-79 1.00304e-78 1.00791e-78 1.00802e-78 1.00861e-78 1.01558e-78 1.03345e-78 1.0634e-78 1.10219e-78 1.14253e-78 1.1749e-78 1.19046e-78 1.18381e-78 1.15481e-78 1.10866e-78 1.05423e-78 1.00142e-78 9.5857e-79 9.30665e-79 9.18951e-79 9.21422e-79 9.337e-79 9.49814e-79 9.62907e-79 9.66144e-79 9.53972e-79 9.23479e-79 8.75294e-79 8.13503e-79 7.44455e-79 6.74851e-79 6.09789e-79 5.51484e-79 4.99093e-79 4.49661e-79 3.99742e-79 3.47038e-79 2.91379e-79 2.34736e-79 1.80386e-79 1.31708e-79 9.1149e-80 5.97128e-80 3.70137e-80 2.1712e-80 1.20592e-80 6.34734e-81 3.16935e-81 1.50303e-81 6.7785e-82 2.91096e-82 1.19193e-82 4.65976e-83 1.74158e-83 6.23095e-84 2.13673e-84 7.03171e-85 2.22336e-85 6.76229e-86 1.98059e-86 5.59211e-87 1.52363e-87 4.00991e-88 1.02034e-88 2.5125e-89 5.99226e-90 1.38534e-90 3.10702e-91 6.7653e-92 1.43119e-92 2.94357e-93 5.88994e-94 1.14731e-94 2.17696e-95 4.02601e-96 7.26101e-97 1.27777e-97 2.19516e-98 3.68345e-99 6.03987e-100 9.68241e-101 1.51816e-101 2.32923e-102 3.49823e-103 5.14517e-104 7.41364e-105 1.0469e-105 1.44935e-106 1.96784e-107 2.62117e-108 3.42554e-109 4.32825e-110 0 
0 1.68456e-155 2.44921e-154 3.50718e-153 4.96849e-152 6.96293e-151 9.65195e-150 1.32327e-148 1.79409e-147 2.40523e-146 3.18812e-145 4.17763e-144 5.41118e-143 6.92735e-142 8.76402e-141 1.09559e-139 1.35313e-138 1.65093e-137 1.98955e-136 2.36786e-135 2.78275e-134 3.22884e-133 3.69836e-132 4.18117e-131 4.66492e-130 5.13548e-129 5.57747e-128 5.97505e-127 6.31277e-126 6.57654e-125 6.75454e-124 6.83809e-123 6.82235e-122 6.70669e-121 6.49488e-120 6.19491e-119 5.81846e-118 5.38017e-117 4.89669e-116 4.38559e-115 3.86431e-114 3.34908e-113 2.85419e-112 2.39129e-111 1.96905e-110 1.59308e-109 1.26605e-108 9.88031e-108 7.56948e-107 5.69117e-106 4.19794e-105 3.03686e-104 2.15386e-103 1.49713e-102 1.01951e-101 6.79894e-101 4.43853e-100 2.83534e-99 1.77154e-98 1.08215e-97 6.45962e-97 3.76621e-96 2.14368e-95 1.19054e-94 6.44803e-94 3.40374e-93 1.75016e-92 8.76034e-92 4.26587e-91 2.01951e-90 9.28812e-90 4.14701e-89 1.79612e-88 7.54007e-88 3.06543e-87 1.20587e-86 4.58568e-86 1.68414e-85 5.96746e-85 2.03787e-84 6.69976e-84 2.11807e-83 6.43128e-83 1.87323e-82 5.22708e-82 1.39548e-81 3.55948e-81 8.66254e-81 2.00855e-80 4.43082e-80 9.28638e-80 1.84666e-79 3.47987e-79 6.20716e-79 1.04711e-78 1.66953e-78 2.51551e-78 3.58294e-78 4.82962e-78 6.17341e-78 7.50697e-78 8.72397e-78 9.74742e-78 1.0548e-77 1.11442e-77 1.15849e-77 1.19249e-77 1.2204e-77 1.24415e-77 1.26431e-77 1.28136e-77 1.29662e-77 1.31201e-77 1.32915e-77 1.34817e-77 1.36693e-77 1.38117e-77 1.38519e-77 1.37301e-77 1.33967e-77 1.2825e-77 1.20237e-77 1.10441e-77 9.98036e-78 8.95792e-78 8.11067e-78 7.5522e-78 7.34989e-78 7.51041e-78 7.98116e-78 8.66611e-78 9.45021e-78 1.02245e-77 1.09062e-77 1.14491e-77 1.18448e-77 1.2114e-77 1.22919e-77 1.24124e-77 1.24964e-77 1.25479e-77 1.25579e-77 1.25135e-77 1.2408e-77 1.22469e-77 1.20494e-77 1.18436e-77 1.16588e-77 1.15169e-77 1.14266e-77 1.13831e-77 1.13712e-77 1.13729e-77 1.13755e-77 1.13774e-77 1.13913e-77 1.14416e-77 1.15561e-77 1.17561e-77 1.20454e-77 1.24047e-77 1.2792e-77 1.31525e-77 1.34345e-77 1.36069e-77 1.36732e-77 1.3675e-77 1.36834e-77 1.37783e-77 1.40205e-77 1.44261e-77 1.49512e-77 1.54972e-77 1.59353e-77 1.61457e-77 1.60555e-77 1.5663e-77 1.50382e-77 1.43013e-77 1.35865e-77 1.30063e-77 1.26283e-77 1.24695e-77 1.25027e-77 1.26686e-77 1.28865e-77 1.30634e-77 1.31067e-77 1.29414e-77 1.25278e-77 1.18744e-77 1.10366e-77 1.01004e-77 9.15639e-78 8.27381e-78 7.4827e-78 6.77173e-78 6.10088e-78 5.42352e-78 4.70847e-78 3.95342e-78 3.18504e-78 2.44777e-78 1.78739e-78 1.23711e-78 8.10551e-79 5.02502e-79 2.94811e-79 1.63771e-79 8.62165e-80 4.30582e-80 2.04243e-80 9.21318e-81 3.95744e-81 1.62084e-81 6.3382e-82 2.36955e-82 8.48011e-83 2.90888e-83 9.57577e-84 3.02874e-84 9.21487e-85 2.69984e-85 7.62556e-86 2.07842e-86 5.47201e-87 1.39291e-87 3.43124e-88 8.18664e-89 1.89341e-89 4.24826e-90 9.25407e-91 1.95851e-91 4.02985e-92 8.06702e-93 1.57208e-93 2.98426e-94 5.52147e-95 9.96264e-96 1.754e-96 3.0147e-97 5.06101e-98 8.3026e-99 1.33161e-99 2.08891e-100 3.20645e-101 4.81808e-102 7.08987e-103 1.02208e-103 1.44402e-104 2.00015e-105 2.71705e-106 3.62095e-107 4.73454e-108 5.98519e-109 0 
0 2.36354e-154 3.43441e-153 4.91509e-152 6.95901e-151 9.74685e-150 1.35032e-148 1.85021e-147 2.50708e-146 3.35916e-145 4.45001e-144 5.82785e-143 7.54436e-142 9.65275e-141 1.22051e-139 1.52489e-138 1.88229e-137 2.29525e-136 2.76447e-135 3.28829e-134 3.86229e-133 4.47894e-132 5.12738e-131 5.79352e-130 6.46024e-129 7.10796e-128 7.71546e-127 8.26091e-126 8.72305e-125 9.08256e-124 9.3233e-123 9.4335e-122 9.40668e-121 9.24222e-120 8.94553e-119 8.52779e-118 8.00529e-117 7.39834e-116 6.72993e-115 6.0243e-114 5.30543e-113 4.59566e-112 3.91452e-111 3.27794e-110 2.69774e-109 2.18151e-108 1.7328e-107 1.35159e-106 1.03495e-105 7.77744e-105 5.73394e-104 4.14596e-103 2.93902e-102 2.04188e-101 1.38978e-100 9.26372e-100 6.04467e-99 3.85949e-98 2.41029e-97 1.47163e-96 8.7804e-96 5.11692e-95 2.91114e-94 1.61603e-93 8.7485e-93 4.61602e-92 2.37244e-91 1.18699e-90 5.77758e-90 2.73399e-89 1.25688e-88 5.60945e-88 2.42851e-87 1.01907e-86 4.14139e-86 1.62849e-85 6.19041e-85 2.27264e-84 8.04968e-84 2.74794e-83 9.03101e-83 2.85409e-82 8.66321e-82 2.5225e-81 7.03658e-81 1.87799e-80 4.78884e-80 1.16511e-79 2.70078e-79 5.95637e-79 1.24808e-78 2.48134e-78 4.67492e-78 8.33731e-78 1.40622e-77 2.2418e-77 3.37734e-77 4.81004e-77 6.48321e-77 8.28671e-77 1.00765e-76 1.171e-76 1.30838e-76 1.41586e-76 1.49589e-76 1.55505e-76 1.60065e-76 1.63808e-76 1.66993e-76 1.69697e-76 1.71987e-76 1.74037e-76 1.76106e-76 1.78411e-76 1.80965e-76 1.83484e-76 1.85395e-76 1.85935e-76 1.84301e-76 1.79827e-76 1.72159e-76 1.61411e-76 1.48272e-76 1.34006e-76 1.20295e-76 1.08934e-76 1.01447e-76 9.87377e-77 1.00894e-76 1.07211e-76 1.16401e-76 1.26919e-76 1.37307e-76 1.46452e-76 1.53735e-76 1.59045e-76 1.62657e-76 1.65043e-76 1.66657e-76 1.6778e-76 1.68465e-76 1.68593e-76 1.67992e-76 1.66573e-76 1.64412e-76 1.61764e-76 1.59008e-76 1.56536e-76 1.54639e-76 1.53435e-76 1.52856e-76 1.52699e-76 1.52724e-76 1.52757e-76 1.52781e-76 1.52966e-76 1.53637e-76 1.55169e-76 1.57846e-76 1.61721e-76 1.66531e-76 1.71719e-76 1.76549e-76 1.80327e-76 1.82639e-76 1.83531e-76 1.8356e-76 1.83679e-76 1.84954e-76 1.88203e-76 1.93638e-76 2.00672e-76 2.07983e-76 2.13849e-76 2.16665e-76 2.15456e-76 2.10197e-76 2.01829e-76 1.91959e-76 1.82385e-76 1.74611e-76 1.69547e-76 1.67416e-76 1.67857e-76 1.70076e-76 1.7299e-76 1.75355e-76 1.7593e-76 1.73707e-76 1.68156e-76 1.59392e-76 1.48152e-76 1.35591e-76 1.22924e-76 1.11078e-76 1.00457e-76 9.09109e-77 8.19031e-77 7.28086e-77 6.32096e-77 5.30747e-77 4.27615e-77 3.28654e-77 2.40009e-77 1.66137e-77 1.08866e-77 6.7501e-78 3.9608e-78 2.20065e-78 1.15873e-78 5.78806e-79 2.74608e-79 1.239e-79 5.32328e-80 2.18078e-80 8.53003e-81 3.18983e-81 1.1419e-81 3.91814e-82 1.29021e-82 4.08212e-83 1.24238e-83 3.64126e-84 1.02881e-84 2.80511e-85 7.38794e-86 1.88131e-86 4.63612e-87 1.10657e-87 2.56029e-88 5.74686e-89 1.25237e-89 2.65158e-90 5.45824e-91 1.09311e-91 2.13114e-92 4.04731e-93 7.49167e-94 1.35237e-94 2.38203e-95 4.09602e-96 6.8795e-97 1.12912e-97 1.81179e-98 2.84352e-99 4.36688e-100 6.56494e-101 9.66514e-102 1.39402e-102 1.97049e-103 2.73072e-104 3.71134e-105 4.94853e-106 6.47369e-107 8.18779e-108 0 
0 3.2801e-153 4.76351e-152 6.81327e-151 9.64097e-150 1.34954e-148 1.86857e-147 2.55885e-146 3.46532e-145 4.64042e-144 6.14384e-143 8.04155e-142 1.04042e-140 1.33042e-139 1.68125e-138 2.09935e-137 2.58993e-136 3.15637e-135 3.79949e-134 4.5169e-133 5.30241e-132 6.14555e-131 7.03138e-130 7.94048e-129 8.84937e-128 9.73127e-127 1.05572e-125 1.12973e-124 1.19228e-123 1.24074e-122 1.27294e-121 1.28729e-120 1.28293e-119 1.25982e-118 1.21873e-117 1.16119e-116 1.08947e-115 1.00633e-114 9.14928e-114 8.18568e-113 7.20511e-112 6.23793e-111 5.31062e-110 4.4447e-109 3.6561e-108 2.95496e-107 2.34596e-106 1.82893e-105 1.39976e-104 1.05136e-103 7.74728e-103 5.59893e-102 3.96705e-101 2.75475e-100 1.87407e-99 1.24857e-98 8.14314e-98 5.19686e-97 3.24395e-96 1.97969e-95 1.18062e-94 6.87707e-94 3.91073e-93 2.16994e-92 1.17418e-91 6.19264e-91 3.18135e-90 1.59101e-89 7.74077e-89 3.66142e-88 1.68254e-87 7.50602e-87 3.24827e-86 1.36251e-85 5.53491e-85 2.17561e-84 8.267e-84 3.03386e-83 1.0742e-82 3.6657e-82 1.2043e-81 3.80467e-81 1.15447e-80 3.36044e-80 9.37113e-80 2.50031e-79 6.37391e-79 1.55032e-78 3.59278e-78 7.92166e-78 1.65949e-77 3.29858e-77 6.2134e-77 1.10791e-76 1.86836e-76 2.97813e-76 4.48614e-76 6.3886e-76 8.61029e-76 1.1005e-75 1.33816e-75 1.55507e-75 1.73752e-75 1.88027e-75 1.98656e-75 2.06512e-75 2.12565e-75 2.17531e-75 2.21756e-75 2.25344e-75 2.28386e-75 2.31111e-75 2.33863e-75 2.36928e-75 2.40322e-75 2.43668e-75 2.46206e-75 2.46922e-75 2.44752e-75 2.38815e-75 2.28639e-75 2.14376e-75 1.96942e-75 1.78014e-75 1.59823e-75 1.44753e-75 1.34823e-75 1.31233e-75 1.34099e-75 1.42486e-75 1.54683e-75 1.68644e-75 1.8243e-75 1.94566e-75 2.04234e-75 2.11283e-75 2.16078e-75 2.19244e-75 2.21383e-75 2.22868e-75 2.23769e-75 2.2393e-75 2.23126e-75 2.21238e-75 2.18368e-75 2.14857e-75 2.11206e-75 2.07934e-75 2.05427e-75 2.03838e-75 2.03076e-75 2.02872e-75 2.02906e-75 2.02949e-75 2.02978e-75 2.03221e-75 2.04107e-75 2.06135e-75 2.0968e-75 2.14813e-75 2.21186e-75 2.2806e-75 2.34461e-75 2.3947e-75 2.42537e-75 2.43724e-75 2.4377e-75 2.43934e-75 2.45631e-75 2.49942e-75 2.57147e-75 2.66469e-75 2.76154e-75 2.83924e-75 2.87652e-75 2.86048e-75 2.79079e-75 2.6799e-75 2.54913e-75 2.42225e-75 2.31923e-75 2.25208e-75 2.22381e-75 2.22961e-75 2.25896e-75 2.29752e-75 2.32879e-75 2.33633e-75 2.30676e-75 2.23307e-75 2.11674e-75 1.96758e-75 1.80085e-75 1.63268e-75 1.47539e-75 1.33432e-75 1.20751e-75 1.08784e-75 9.67038e-76 8.39549e-76 7.04957e-76 5.68001e-76 4.36582e-76 3.18856e-76 2.20739e-76 1.44664e-76 8.97095e-77 5.26474e-77 2.92561e-77 1.54073e-77 7.69767e-78 3.65282e-78 1.64847e-78 7.08417e-79 2.90286e-79 1.13573e-79 4.24823e-80 1.52121e-80 5.22116e-81 1.7198e-81 5.44301e-82 1.6571e-82 4.85835e-83 1.37316e-83 3.74532e-84 9.86776e-85 2.51372e-85 6.19689e-86 1.47967e-86 3.42488e-87 7.69062e-88 1.67663e-88 3.55133e-89 7.31343e-90 1.46527e-90 2.85794e-91 5.42997e-92 1.00555e-92 1.81598e-93 3.20009e-94 5.50523e-95 9.25062e-96 1.51899e-96 2.43853e-97 3.82899e-98 5.88311e-99 8.84863e-100 1.30336e-100 1.88078e-101 2.65985e-102 3.68789e-103 5.01473e-104 6.68977e-105 8.75602e-106 1.10799e-106 0 
0 4.50209e-152 6.53439e-151 9.34077e-150 1.32098e-148 1.84805e-147 2.55734e-146 3.50004e-145 4.73722e-144 6.34001e-143 8.38928e-142 1.09743e-140 1.41905e-139 1.81357e-138 2.29052e-137 2.85851e-136 3.52452e-135 4.29295e-134 5.16475e-133 6.13652e-132 7.19968e-131 8.33988e-130 9.53671e-129 1.07638e-127 1.19892e-126 1.31768e-125 1.42873e-124 1.52805e-123 1.61178e-122 1.67638e-121 1.71895e-120 1.73738e-119 1.73058e-118 1.69849e-117 1.64221e-116 1.56385e-115 1.46647e-114 1.35385e-113 1.23023e-112 1.10009e-111 9.678e-111 8.37451e-110 7.12588e-109 5.9609e-108 4.90076e-107 3.9589e-106 3.1414e-105 2.44783e-104 1.87248e-103 1.40571e-102 1.03533e-101 7.47859e-101 5.29625e-100 3.67595e-99 2.49955e-98 1.66449e-97 1.08505e-96 6.92138e-96 4.31838e-95 2.63415e-94 1.57019e-93 9.14207e-93 5.19638e-92 2.882e-91 1.55879e-90 8.21741e-90 4.21968e-89 2.10938e-88 1.02584e-87 4.8502e-87 2.22789e-86 9.93482e-86 4.2976e-85 1.80194e-84 7.31713e-84 2.87503e-83 1.09206e-82 4.0062e-82 1.41796e-81 4.83707e-81 1.58858e-80 5.01701e-80 1.52184e-79 4.42837e-79 1.23455e-78 3.29291e-78 8.39208e-78 2.04065e-77 4.72787e-77 1.04219e-76 2.18276e-76 4.33776e-76 8.16927e-76 1.4564e-75 2.45567e-75 3.91377e-75 5.89488e-75 8.394e-75 1.13123e-74 1.44579e-74 1.75797e-74 2.04293e-74 2.28263e-74 2.47018e-74 2.60985e-74 2.71304e-74 2.79252e-74 2.85769e-74 2.91313e-74 2.96023e-74 3.00019e-74 3.03603e-74 3.07225e-74 3.11256e-74 3.15718e-74 3.20115e-74 3.23448e-74 3.24388e-74 3.21539e-74 3.13744e-74 3.00385e-74 2.81662e-74 2.58778e-74 2.33934e-74 2.1006e-74 1.90283e-74 1.77256e-74 1.7255e-74 1.76319e-74 1.87333e-74 2.03349e-74 2.21678e-74 2.39778e-74 2.55713e-74 2.68407e-74 2.77662e-74 2.83959e-74 2.88115e-74 2.9092e-74 2.92862e-74 2.94035e-74 2.94235e-74 2.9317e-74 2.90685e-74 2.86915e-74 2.82309e-74 2.77525e-74 2.73242e-74 2.69963e-74 2.67889e-74 2.66897e-74 2.66634e-74 2.66681e-74 2.66737e-74 2.66772e-74 2.67086e-74 2.68244e-74 2.70899e-74 2.75543e-74 2.82269e-74 2.90622e-74 2.99632e-74 3.08023e-74 3.14592e-74 3.18617e-74 3.2018e-74 3.20248e-74 3.20473e-74 3.22707e-74 3.28365e-74 3.37814e-74 3.50033e-74 3.62727e-74 3.72908e-74 3.77791e-74 3.75685e-74 3.66549e-74 3.52014e-74 3.34872e-74 3.1824e-74 3.04734e-74 2.95928e-74 2.92216e-74 2.9297e-74 2.96811e-74 3.01858e-74 3.05949e-74 3.06926e-74 3.03037e-74 2.93358e-74 2.78085e-74 2.58501e-74 2.36609e-74 2.14525e-74 1.93863e-74 1.75329e-74 1.58664e-74 1.42938e-74 1.27064e-74 1.10313e-74 9.26306e-75 7.46384e-75 5.73733e-75 4.19062e-75 2.9014e-75 1.9017e-75 1.17945e-75 6.92281e-76 3.84762e-76 2.02664e-76 1.01273e-76 4.80672e-77 2.16967e-77 9.32607e-78 3.82243e-78 1.49588e-78 5.59684e-79 2.00467e-79 6.88248e-80 2.26769e-80 7.17924e-81 2.18638e-81 6.41222e-82 1.81296e-82 4.94659e-83 1.30374e-83 3.32235e-84 8.19342e-85 1.95713e-85 4.5318e-86 1.01802e-86 2.22029e-87 4.70479e-88 9.69284e-89 1.94281e-89 3.79099e-90 7.20584e-91 1.335e-91 2.41203e-92 4.25234e-93 7.3188e-94 1.23037e-94 2.02125e-95 3.24636e-96 5.09984e-97 7.83947e-98 1.17968e-98 1.73845e-99 2.50985e-100 3.55125e-101 4.92624e-102 6.70196e-103 8.94506e-104 1.17138e-104 1.48299e-105 0 
0 6.11077e-151 8.86418e-150 1.26639e-148 1.78991e-147 2.50264e-146 3.46118e-145 4.73435e-144 6.40416e-143 8.56607e-142 1.13284e-140 1.48107e-139 1.91404e-138 2.44479e-137 3.086e-136 3.84909e-135 4.74323e-134 5.77413e-133 6.94285e-132 8.24458e-131 9.66758e-130 1.11924e-128 1.27915e-127 1.44294e-126 1.60633e-125 1.76448e-124 1.91213e-123 2.04395e-122 2.15477e-121 2.23992e-120 2.29556e-119 2.31893e-118 2.3086e-117 2.26459e-116 2.18838e-115 2.08285e-114 1.95212e-113 1.80125e-112 1.63593e-111 1.4621e-110 1.28561e-109 1.11188e-108 9.45609e-108 7.90609e-107 6.49667e-106 5.24543e-105 4.16015e-104 3.24002e-103 2.47723e-102 1.85878e-101 1.36835e-100 9.87921e-100 6.99291e-99 4.85119e-98 3.29709e-97 2.19452e-96 1.42989e-95 9.11675e-95 5.68544e-94 3.46642e-93 2.06534e-92 1.20195e-91 6.82881e-91 3.78567e-90 2.04665e-89 1.07845e-88 5.53548e-88 2.76594e-87 1.34457e-86 6.35451e-86 2.91767e-85 1.30054e-84 5.62362e-84 2.357e-83 9.56734e-83 3.75774e-82 1.42682e-81 5.23233e-81 1.85128e-80 6.31302e-80 2.0726e-79 6.54346e-79 1.98423e-78 5.77206e-78 1.60865e-77 4.28952e-77 1.09289e-76 2.65681e-76 6.15386e-76 1.3562e-75 2.8398e-75 5.64231e-75 1.06241e-74 1.89372e-74 3.19256e-74 5.08753e-74 7.66194e-74 1.09092e-73 1.47011e-73 1.87881e-73 2.28445e-73 2.65473e-73 2.96624e-73 3.20999e-73 3.3915e-73 3.52558e-73 3.62881e-73 3.71341e-73 3.78537e-73 3.84653e-73 3.89847e-73 3.94509e-73 3.99222e-73 4.04467e-73 4.10269e-73 4.15984e-73 4.20313e-73 4.21533e-73 4.17834e-73 4.07711e-73 3.90363e-73 3.66053e-73 3.36342e-73 3.04088e-73 2.73096e-73 2.47425e-73 2.30519e-73 2.24417e-73 2.2932e-73 2.43629e-73 2.6443e-73 2.88234e-73 3.11739e-73 3.32432e-73 3.48919e-73 3.6094e-73 3.69118e-73 3.74515e-73 3.78153e-73 3.80665e-73 3.82175e-73 3.82421e-73 3.81025e-73 3.77789e-73 3.72892e-73 3.66916e-73 3.60715e-73 3.55168e-73 3.50926e-73 3.48248e-73 3.46972e-73 3.46638e-73 3.467e-73 3.46772e-73 3.46814e-73 3.47216e-73 3.48712e-73 3.5215e-73 3.58168e-73 3.66885e-73 3.77715e-73 3.89395e-73 4.00276e-73 4.08796e-73 4.14021e-73 4.16056e-73 4.16156e-73 4.16459e-73 4.19368e-73 4.26713e-73 4.3897e-73 4.54814e-73 4.71269e-73 4.84464e-73 4.9079e-73 4.88056e-73 4.76209e-73 4.57365e-73 4.35141e-73 4.13575e-73 3.9606e-73 3.84638e-73 3.79818e-73 3.80787e-73 3.85759e-73 3.92293e-73 3.97586e-73 3.9884e-73 3.93778e-73 3.81205e-73 3.6137e-73 3.35938e-73 3.07505e-73 2.78818e-73 2.51973e-73 2.27886e-73 2.06224e-73 1.85781e-73 1.65147e-73 1.43377e-73 1.20398e-73 9.70174e-74 7.45808e-74 5.44795e-74 3.77232e-74 2.47283e-74 1.53387e-74 9.00442e-75 5.00535e-75 2.6369e-75 1.31792e-75 6.25647e-76 2.82465e-76 1.21441e-76 4.9786e-77 1.94881e-77 7.29337e-78 2.61303e-78 8.97363e-79 2.95756e-79 9.36611e-80 2.85327e-80 8.37076e-81 2.36749e-81 6.46183e-82 1.70369e-82 4.34314e-83 1.07148e-83 2.56037e-84 5.93088e-85 1.33283e-85 2.90804e-86 6.16464e-87 1.27057e-87 2.54775e-88 4.97353e-89 9.45765e-90 1.75294e-90 3.16857e-91 5.58858e-92 9.62296e-93 1.61846e-93 2.66003e-94 4.2743e-95 6.71784e-96 1.03315e-96 1.55543e-97 2.29328e-98 3.31248e-99 4.68919e-100 6.50798e-101 8.85825e-102 1.18289e-102 1.54981e-103 1.96305e-104 0 
0 8.20135e-150 1.189e-148 1.69769e-147 2.39814e-146 3.35114e-145 4.632e-144 6.33224e-143 8.56076e-142 1.14442e-140 1.51261e-139 1.97645e-138 2.55279e-137 3.25883e-136 4.11122e-135 5.12496e-134 6.31194e-133 7.6795e-132 9.22873e-131 1.0953e-129 1.28363e-128 1.48527e-127 1.69654e-126 1.91272e-125 2.12814e-124 2.33638e-123 2.53051e-122 2.70349e-121 2.84852e-120 2.95948e-119 3.03136e-118 3.06058e-117 3.04532e-116 2.98567e-115 2.88365e-114 2.74315e-113 2.56962e-112 2.36978e-111 2.15114e-110 1.92156e-109 1.68874e-108 1.45977e-107 1.24084e-106 1.03692e-105 8.51633e-105 6.87262e-104 5.44792e-103 4.24084e-102 3.2408e-101 2.43052e-100 1.78835e-99 1.29052e-98 9.1304e-98 6.33096e-97 4.30074e-96 2.86118e-95 1.86338e-94 1.1875e-93 7.40212e-93 4.511e-92 2.68648e-91 1.56272e-90 8.87449e-90 4.91753e-89 2.65739e-88 1.39966e-87 7.1811e-87 3.58669e-86 1.74281e-85 8.23321e-85 3.77872e-84 1.68368e-83 7.27742e-83 3.04896e-82 1.23713e-81 4.85722e-81 1.8436e-80 6.75831e-80 2.39034e-79 8.14846e-79 2.67429e-78 8.44029e-78 2.55861e-77 7.44062e-77 2.07306e-76 5.5263e-76 1.40761e-75 3.42101e-75 7.92197e-75 1.74545e-74 3.65407e-74 7.25869e-74 1.36651e-73 2.43536e-73 4.10508e-73 6.54084e-73 9.84961e-73 1.40229e-72 1.88958e-72 2.4148e-72 2.9361e-72 3.41199e-72 3.81238e-72 4.12571e-72 4.35902e-72 4.53134e-72 4.66393e-72 4.77256e-72 4.86493e-72 4.94347e-72 5.01023e-72 5.07021e-72 5.13088e-72 5.19837e-72 5.27299e-72 5.34643e-72 5.40206e-72 5.41773e-72 5.3702e-72 5.24018e-72 5.0174e-72 4.70522e-72 4.32369e-72 3.90955e-72 3.51163e-72 3.18207e-72 2.96508e-72 2.88685e-72 2.94993e-72 3.13378e-72 3.40099e-72 3.70673e-72 4.00863e-72 4.27441e-72 4.48618e-72 4.64061e-72 4.74566e-72 4.81496e-72 4.86162e-72 4.89376e-72 4.91299e-72 4.91596e-72 4.89787e-72 4.8562e-72 4.79328e-72 4.7166e-72 4.6371e-72 4.56606e-72 4.5118e-72 4.4776e-72 4.46136e-72 4.45715e-72 4.45799e-72 4.45889e-72 4.45938e-72 4.46447e-72 4.48359e-72 4.52761e-72 4.60474e-72 4.71649e-72 4.85533e-72 5.0051e-72 5.14465e-72 5.25394e-72 5.32102e-72 5.34722e-72 5.34864e-72 5.35269e-72 5.39013e-72 5.48445e-72 5.64168e-72 5.84487e-72 6.05585e-72 6.22498e-72 6.30603e-72 6.27092e-72 6.119e-72 5.87737e-72 5.59238e-72 5.31584e-72 5.0912e-72 4.94466e-72 4.88276e-72 4.89509e-72 4.95873e-72 5.0424e-72 5.11013e-72 5.12603e-72 5.06088e-72 4.89933e-72 4.64457e-72 4.31793e-72 3.95272e-72 3.58416e-72 3.23919e-72 2.92959e-72 2.65111e-72 2.38828e-72 2.12301e-72 1.84316e-72 1.5478e-72 1.24729e-72 9.58901e-73 7.00515e-73 4.85107e-73 3.18034e-73 1.97299e-73 1.15839e-73 6.4402e-74 3.39337e-74 1.6963e-74 8.05428e-75 3.63706e-75 1.56403e-75 6.41335e-76 2.51103e-76 9.39981e-77 3.3686e-77 1.15716e-77 3.81489e-78 1.20847e-78 3.68259e-79 1.08072e-79 3.05758e-80 8.34818e-81 2.2018e-81 5.61494e-82 1.38574e-82 3.31255e-83 7.67615e-84 1.72571e-84 3.76673e-85 7.98814e-86 1.64707e-86 3.3041e-87 6.45271e-88 1.22757e-88 2.27624e-89 4.11627e-90 7.26331e-91 1.25123e-91 2.10535e-92 3.46186e-93 5.5653e-94 8.75095e-95 1.34646e-95 2.02809e-96 2.99159e-97 4.32321e-98 6.12297e-99 8.50203e-100 1.15781e-100 1.54686e-101 2.02768e-102 2.5696e-103 0 