# vtk DataFile Version 3.0
Gray-Scott Simulation Output
ASCII
DATASET STRUCTURED_POINTS
DIMENSIONS 256 256 1
SPACING 1.0 1.0 1.0
ORIGIN 0 0 0
POINT_DATA 65536
SCALARS u double
LOOKUP_TABLE default
0 0 0 0 0 0 0 0 0 0 0 0 0 0 0 0 0 0 0 0 0 0 0 0 0 0 0 0 0 0 0 0 0 0 0 0 0 0 0 0 0 0 0 0 0 0 0 0 0 0 0 0 0 0 0 0 0 0 0 0 0 0 0 0 0 0 0 0 0 0 0 0 0 0 0 0 0 0 0 0 0 0 0 0 0 0 0 0 0 0 0 0 0 0 0 0 0 0 0 0 0 0 0 0 0 0 0 0 0 0 0 0 0 0 0 0 0 0 0 0 0 0 0 0 0 0 0 0 0 0 0 0 0 0 0 0 0 0 0 0 0 0 0 0 0 0 0 0 0 0 0 0 0 0 0 0 0 0 0 0 0 0 0 0 0 0 0 0 0 0 0 0 0 0 0 0 0 0 0 0 0 0 0 0 0 0 0 0 0 0 0 0 0 0 0 0 0 0 0 0 0 0 0 0 0 0 0 0 0 0 0 0 0 0 0 0 0 0 0 0 0 0 0 0 0 0 0 0 0 0 0 0 0 0 0 0 0 0 0 0 0 0 0 0 0 0 0 0 0 0 0 0 0 0 0 0 
0 4.60843e-198 1.18107e-196 2.98878e-195 7.47837e-194 1.84999e-192 4.52413e-191 1.0936e-189 2.61269e-188 6.16851e-187 1.43907e-185 3.31699e-184 7.55288e-183 1.69877e-181 3.77362e-180 8.27799e-179 1.79299e-177 3.83408e-176 8.09305e-175 1.68605e-173 3.46637e-172 7.03171e-171 1.40722e-169 2.77785e-168 5.408e-167 1.03818e-165 1.9649e-164 3.66583e-163 6.7404e-162 1.22125e-160 2.17996e-159 3.83294e-158 6.63699e-157 1.13156e-155 1.89916e-154 3.13711e-153 5.09899e-152 8.15322e-151 1.28221e-149 1.98278e-148 3.01414e-147 4.50311e-146 6.61013e-145 9.53091e-144 1.34947e-142 1.87572e-141 2.5587e-140 3.42435e-139 4.49474e-138 5.78431e-137 7.2957e-136 9.01558e-135 1.09111e-133 1.29276e-132 1.49889e-131 1.69995e-130 1.88508e-129 2.04289e-128 2.16261e-127 2.23517e-126 2.25431e-125 2.21744e-124 2.12606e-123 1.98575e-122 1.80562e-121 1.59732e-120 1.3738e-119 1.14789e-118 9.31089e-118 7.32562e-117 5.58584e-116 4.12411e-115 2.94546e-114 2.03292e-113 1.35444e-112 8.70122e-112 5.38331e-111 3.20336e-110 1.83083e-109 1.00354e-108 5.26717e-108 2.64264e-107 1.26511e-106 5.76763e-106 2.49879e-105 1.02647e-104 3.98825e-104 1.46185e-103 5.04063e-103 1.6301e-102 4.92821e-102 1.38812e-101 3.62969e-101 8.77825e-101 1.95624e-100 4.00264e-100 7.49484e-100 1.28101e-99 1.99573e-99 2.83515e-99 3.68379e-99 4.40733e-99 4.91163e-99 5.18646e-99 5.30398e-99 5.37276e-99 5.47704e-99 5.63693e-99 5.8107e-99 5.93573e-99 5.98014e-99 5.96731e-99 5.9562e-99 5.99909e-99 6.11225e-99 6.27434e-99 6.44119e-99 6.56278e-99 6.59484e-99 6.5014e-99 6.25218e-99 5.82623e-99 5.22879e-99 4.51141e-99 3.77607e-99 3.15249e-99 2.75719e-99 2.65497e-99 2.84082e-99 3.24846e-99 3.77857e-99 4.33071e-99 4.82384e-99 5.2032e-99 5.44344e-99 5.55406e-99 5.57879e-99 5.57822e-99 5.60092e-99 5.66252e-99 5.74547e-99 5.81547e-99 5.84021e-99 5.8004e-99 5.69346e-99 5.53572e-99 5.36113e-99 5.20943e-99 5.10835e-99 5.0646e-99 5.06842e-99 5.10147e-99 5.14051e-99 5.16151e-99 5.14977e-99 5.11114e-99 5.07362e-99 5.0759e-99 5.15182e-99 5.32028e-99 5.57815e-99 5.89183e-99 6.19704e-99 6.41945e-99 6.50761e-99 6.45403e-99 6.29471e-99 6.10033e-99 5.96705e-99 5.99593e-99 6.2517e-99 6.71912e-99 7.29099e-99 7.80227e-99 8.09137e-99 8.05795e-99 7.69721e-99 7.1031e-99 6.43657e-99 5.86404e-99 5.49191e-99 5.33642e-99 5.34843e-99 5.4688e-99 5.6639e-99 5.91415e-99 6.17721e-99 6.3707e-99 6.39706e-99 6.1923e-99 5.76168e-99 5.1791e-99 4.55486e-99 3.99385e-99 3.56279e-99 3.27305e-99 3.08089e-99 2.90677e-99 2.67078e-99 2.32961e-99 1.8948e-99 1.42169e-99 9.78515e-100 6.16402e-100 3.55332e-100 1.8768e-100 9.10215e-101 4.06441e-101 1.67615e-101 6.40468e-102 2.27501e-102 7.53671e-103 2.33594e-103 6.79412e-104 1.85967e-104 4.80333e-105 1.17368e-105 2.71947e-106 5.98834e-107 1.25578e-107 2.51271e-108 4.80588e-109 8.80109e-110 1.54566e-110 2.60704e-111 4.22895e-112 6.60589e-113 9.94885e-114 1.44628e-114 2.0316e-115 2.76039e-116 3.63132e-117 4.6293e-118 5.72393e-119 6.86996e-120 8.00995e-121 9.07902e-122 1.00111e-122 1.07461e-123 1.12362e-124 1.1451e-125 1.13809e-126 1.10372e-127 1.04499e-128 9.66409e-130 8.73398e-131 7.71732e-132 6.66986e-133 5.64087e-134 4.67019e-135 3.78661e-136 3.00788e-137 2.34164e-138 1.7872e-139 1.33075e-140 0 
0 1.18075e-196 3.02283e-195 7.64126e-194 1.9099e-192 4.71961e-191 1.15294e-189 2.78396e-188 6.644e-187 1.56696e-185 3.65171e-184 8.40805e-183 1.9125e-181 4.29699e-180 9.53513e-179 2.08946e-177 4.52093e-176 9.65722e-175 2.03632e-173 4.23788e-172 8.70355e-171 1.76371e-169 3.52592e-168 6.95292e-167 1.3522e-165 2.59313e-164 4.90278e-163 9.13738e-162 1.67836e-160 3.03777e-159 5.41689e-158 9.51451e-157 1.64581e-155 2.80311e-154 4.69979e-153 7.75536e-152 1.25926e-150 2.01148e-149 3.16014e-148 4.88179e-147 7.41356e-146 1.10647e-144 1.62255e-143 2.33714e-142 3.3058e-141 4.59036e-140 6.25552e-139 8.36352e-138 1.09669e-136 1.40993e-135 1.77658e-134 2.19322e-133 2.65172e-132 3.13871e-131 3.63561e-130 4.11927e-129 4.5634e-128 4.94064e-127 5.22511e-126 5.3952e-125 5.43617e-124 5.34213e-123 5.11709e-122 4.77483e-121 4.33757e-120 3.83356e-119 3.294e-118 2.74976e-117 2.22833e-116 1.75158e-115 1.33436e-114 9.8427e-114 7.0233e-113 4.84298e-112 3.22375e-111 2.06914e-110 1.27901e-109 7.60407e-109 4.34218e-108 2.37803e-107 1.24706e-106 6.25141e-106 2.99022e-105 1.36211e-104 5.89646e-104 2.42024e-103 9.39625e-103 3.44145e-102 1.18576e-101 3.83187e-101 1.15767e-100 3.25859e-100 8.51523e-100 2.05814e-99 4.58407e-99 9.3747e-99 1.75462e-98 2.99786e-98 4.66906e-98 6.63146e-98 8.61525e-98 1.03068e-97 1.14862e-97 1.21295e-97 1.24051e-97 1.25664e-97 1.28101e-97 1.31833e-97 1.35889e-97 1.38809e-97 1.39852e-97 1.39562e-97 1.39314e-97 1.40326e-97 1.42978e-97 1.46771e-97 1.50672e-97 1.53515e-97 1.54263e-97 1.52076e-97 1.46244e-97 1.3628e-97 1.22306e-97 1.05532e-97 8.83397e-98 7.37624e-98 6.45224e-98 6.21334e-98 6.6478e-98 7.60074e-98 8.84003e-98 1.01309e-97 1.1284e-97 1.21713e-97 1.27335e-97 1.29929e-97 1.30516e-97 1.30508e-97 1.31039e-97 1.32474e-97 1.34404e-97 1.3603e-97 1.36599e-97 1.35661e-97 1.33158e-97 1.29472e-97 1.25396e-97 1.21859e-97 1.19506e-97 1.18491e-97 1.18585e-97 1.19359e-97 1.20268e-97 1.20754e-97 1.20475e-97 1.19569e-97 1.18692e-97 1.18745e-97 1.2052e-97 1.24458e-97 1.30483e-97 1.3781e-97 1.44938e-97 1.50134e-97 1.52196e-97 1.50949e-97 1.47234e-97 1.42702e-97 1.396e-97 1.40285e-97 1.46266e-97 1.57185e-97 1.70539e-97 1.82474e-97 1.89221e-97 1.88436e-97 1.8001e-97 1.66135e-97 1.50568e-97 1.37193e-97 1.28495e-97 1.24854e-97 1.25128e-97 1.27937e-97 1.32496e-97 1.38343e-97 1.44488e-97 1.49005e-97 1.49618e-97 1.44831e-97 1.34765e-97 1.21145e-97 1.06545e-97 9.34171e-98 8.33231e-98 7.65322e-98 7.20256e-98 6.79466e-98 6.24276e-98 5.44551e-98 4.42964e-98 3.32418e-98 2.28847e-98 1.442e-98 8.31538e-99 4.39375e-99 2.13184e-99 9.52407e-100 3.92982e-100 1.50249e-100 5.34034e-101 1.77033e-101 5.49078e-102 1.59815e-102 4.37766e-103 1.13157e-103 2.76712e-104 6.41669e-105 1.41413e-105 2.96795e-106 5.94364e-107 1.13777e-107 2.08543e-108 3.66567e-109 6.18829e-110 1.00472e-110 1.57085e-111 2.36794e-112 3.44546e-113 4.84431e-114 6.5882e-115 8.67492e-116 1.10694e-116 1.36997e-117 1.64582e-118 1.92074e-119 2.17918e-120 2.40522e-121 2.58428e-122 2.70474e-123 2.75912e-124 2.7449e-125 2.66459e-126 2.52529e-127 2.33769e-128 2.11478e-129 1.87046e-130 1.61818e-131 1.3699e-132 1.13529e-133 9.2142e-135 7.32658e-136 5.70949e-137 4.362e-138 3.25118e-139 0 
0 2.98717e-195 7.63918e-194 1.92899e-192 4.81623e-191 1.18887e-189 2.90113e-188 6.99776e-187 1.66825e-185 3.93028e-184 9.14953e-183 2.10443e-181 4.78166e-180 1.0732e-178 2.37892e-177 5.20747e-176 1.12554e-174 2.40175e-173 5.05898e-172 1.05174e-170 2.15774e-169 4.3679e-168 8.72296e-167 1.71832e-165 3.33829e-164 6.39519e-163 1.20787e-161 2.24879e-160 4.12631e-159 7.46073e-158 1.32901e-156 2.33193e-155 4.02958e-154 6.85606e-153 1.14833e-151 1.89298e-150 3.07053e-149 4.89973e-148 7.68989e-147 1.18673e-145 1.80036e-144 2.6843e-143 3.93234e-142 5.65849e-141 7.99569e-140 1.10915e-138 1.50998e-137 2.0168e-136 2.64195e-135 3.39319e-134 4.27133e-133 5.26782e-132 6.3628e-131 7.52394e-130 8.70652e-129 9.85513e-128 1.0907e-126 1.17972e-125 1.24644e-124 1.28577e-123 1.29428e-122 1.27067e-121 1.21598e-120 1.13357e-119 1.02878e-118 9.0838e-118 7.79794e-117 6.50343e-116 5.2653e-115 4.13494e-114 3.14709e-113 2.31927e-112 1.65341e-111 1.13909e-110 7.57555e-110 4.85796e-109 3.00019e-108 1.78212e-107 1.01676e-106 5.56354e-106 2.91506e-105 1.46006e-104 6.978e-104 3.176e-103 1.37374e-102 5.63409e-102 2.18564e-101 7.99895e-101 2.754e-100 8.8933e-100 2.68492e-99 7.55244e-99 1.97232e-98 4.76429e-98 1.06056e-97 2.16782e-97 4.05563e-97 6.92668e-97 1.07849e-96 1.53144e-96 1.98929e-96 2.37973e-96 2.65207e-96 2.80075e-96 2.86456e-96 2.90189e-96 2.9581e-96 3.0441e-96 3.13756e-96 3.20492e-96 3.2291e-96 3.22263e-96 3.21717e-96 3.24075e-96 3.30212e-96 3.38974e-96 3.47983e-96 3.54545e-96 3.56269e-96 3.51214e-96 3.37741e-96 3.14725e-96 2.82459e-96 2.43732e-96 2.04048e-96 1.70403e-96 1.49079e-96 1.43566e-96 1.53594e-96 1.75589e-96 2.04193e-96 2.33992e-96 2.60612e-96 2.81101e-96 2.94092e-96 3.00097e-96 3.0147e-96 3.01464e-96 3.02691e-96 3.05992e-96 3.10427e-96 3.14155e-96 3.15444e-96 3.13262e-96 3.07476e-96 2.98973e-96 2.89582e-96 2.81439e-96 2.76029e-96 2.73706e-96 2.73935e-96 2.75723e-96 2.77815e-96 2.78925e-96 2.78271e-96 2.76174e-96 2.74146e-96 2.7427e-96 2.78367e-96 2.87452e-96 3.01351e-96 3.18248e-96 3.34686e-96 3.46668e-96 3.5143e-96 3.48565e-96 3.40014e-96 3.29583e-96 3.22453e-96 3.24057e-96 3.37865e-96 3.63048e-96 3.93834e-96 4.21343e-96 4.36887e-96 4.35068e-96 4.15635e-96 3.83643e-96 3.47749e-96 3.16902e-96 2.9683e-96 2.88415e-96 2.8903e-96 2.95502e-96 3.06017e-96 3.19506e-96 3.33677e-96 3.44091e-96 3.45497e-96 3.34447e-96 3.11217e-96 2.79777e-96 2.46063e-96 2.15733e-96 1.92396e-96 1.76682e-96 1.66247e-96 1.56812e-96 1.44069e-96 1.25675e-96 1.02242e-96 7.67396e-97 5.28421e-97 3.3306e-97 1.92126e-97 1.01556e-97 4.92968e-98 2.20344e-98 9.09675e-99 3.48e-99 1.23767e-99 4.1056e-100 1.27425e-100 3.71151e-101 1.01742e-101 2.63189e-102 6.44104e-103 1.49481e-103 3.29701e-104 6.92547e-105 1.38807e-105 2.65941e-106 4.87867e-107 8.58304e-108 1.45025e-108 2.3567e-109 3.68795e-110 5.56437e-111 8.10382e-112 1.14045e-112 1.55243e-113 2.04605e-114 2.61325e-115 3.23726e-116 3.89277e-117 4.54737e-118 5.16415e-119 5.70527e-120 6.13593e-121 6.42815e-122 6.56376e-123 6.53629e-124 6.35125e-125 6.02511e-126 5.58299e-127 5.05561e-128 4.47595e-129 3.8761e-130 3.28464e-131 2.72484e-132 2.21373e-133 1.76199e-134 1.37447e-135 1.05114e-136 7.84239e-138 0 
0 7.47225e-194 1.90884e-192 4.81488e-191 1.20087e-189 2.96112e-188 7.21811e-187 1.7392e-185 4.14177e-184 9.74733e-183 2.26672e-181 5.208e-180 1.1821e-178 2.65028e-177 5.86858e-176 1.28328e-174 2.77074e-173 5.90613e-172 1.24274e-170 2.58089e-169 5.28938e-168 1.0696e-166 2.13383e-165 4.199e-164 8.14917e-163 1.55952e-161 2.94242e-160 5.47246e-159 1.0031e-157 1.81183e-156 3.22414e-155 5.65139e-154 9.75559e-153 1.65814e-151 2.7744e-150 4.56882e-149 7.40335e-148 1.18017e-146 1.85034e-145 2.85261e-144 4.32324e-143 6.43935e-142 9.42376e-141 1.35468e-139 1.9123e-138 2.65006e-137 3.60415e-136 4.80908e-135 6.29348e-134 8.07503e-133 1.01547e-131 1.25115e-130 1.50972e-129 1.78348e-128 2.06178e-127 2.3315e-126 2.57785e-125 2.78553e-124 2.94021e-123 3.03006e-122 3.0472e-121 2.98875e-120 2.85737e-119 2.66118e-118 2.4129e-117 2.1285e-116 1.82548e-115 1.52102e-114 1.2303e-113 9.6528e-113 7.33995e-112 5.40427e-111 3.8492e-110 2.64943e-109 1.76042e-108 1.1279e-107 6.95951e-107 4.13033e-106 2.35443e-105 1.28719e-104 6.73854e-104 3.37226e-103 1.61034e-102 7.32335e-102 3.16506e-101 1.29704e-100 5.02771e-100 1.83862e-99 6.32557e-99 2.0412e-98 6.15816e-98 1.73108e-97 4.51787e-97 1.09068e-96 2.42658e-96 4.95757e-96 9.27073e-96 1.58278e-95 2.46366e-95 3.4976e-95 4.54266e-95 5.43394e-95 6.05584e-95 6.39568e-95 6.54178e-95 6.62723e-95 6.75546e-95 6.95145e-95 7.16444e-95 7.31808e-95 7.37351e-95 7.35927e-95 7.34741e-95 7.40176e-95 7.54218e-95 7.7424e-95 7.94812e-95 8.09791e-95 8.13722e-95 8.02166e-95 7.71384e-95 7.18812e-95 6.45126e-95 5.56704e-95 4.66113e-95 3.89318e-95 3.40649e-95 3.28071e-95 3.50962e-95 4.01166e-95 4.66462e-95 5.34489e-95 5.95267e-95 6.42056e-95 6.7174e-95 6.85491e-95 6.88666e-95 6.88682e-95 6.91485e-95 6.98992e-95 7.09068e-95 7.17521e-95 7.20411e-95 7.15391e-95 7.02166e-95 6.82766e-95 6.61364e-95 6.42826e-95 6.30529e-95 6.25271e-95 6.25822e-95 6.29907e-95 6.34667e-95 6.37174e-95 6.35656e-95 6.30855e-95 6.26222e-95 6.26505e-95 6.35857e-95 6.56589e-95 6.88294e-95 7.26832e-95 7.64318e-95 7.91646e-95 8.02519e-95 7.96012e-95 7.76545e-95 7.52803e-95 7.36598e-95 7.40309e-95 7.71837e-95 8.29275e-95 8.99463e-95 9.62166e-95 9.9758e-95 9.93413e-95 9.4909e-95 8.7614e-95 7.94291e-95 7.23935e-95 6.78127e-95 6.58891e-95 6.60259e-95 6.75006e-95 6.98991e-95 7.29764e-95 7.62084e-95 7.85826e-95 7.89015e-95 7.6379e-95 7.10772e-95 6.39e-95 5.62009e-95 4.92709e-95 4.3935e-95 4.03387e-95 3.79492e-95 3.57911e-95 3.28812e-95 2.86843e-95 2.33384e-95 1.75201e-95 1.20669e-95 7.60781e-96 4.39004e-96 2.32145e-96 1.12736e-96 5.04147e-97 2.08245e-97 7.97112e-98 2.83671e-98 9.41608e-99 2.92447e-99 8.52414e-100 2.3384e-100 6.05368e-101 1.48267e-101 3.44368e-102 7.60168e-103 1.59808e-103 3.20572e-104 6.1471e-105 1.12866e-105 1.98738e-106 3.36097e-107 5.46654e-108 8.56219e-109 1.29303e-109 1.88486e-110 2.65499e-111 3.61744e-112 4.77209e-113 6.10069e-114 7.56457e-115 9.10492e-116 1.06461e-116 1.21016e-117 1.33824e-118 1.44064e-119 1.51071e-120 1.54407e-121 1.5391e-122 1.49699e-123 1.42151e-124 1.31849e-125 1.19512e-126 1.05913e-127 9.18101e-129 7.78778e-130 6.46693e-131 5.25914e-132 4.19013e-133 3.27185e-134 2.5047e-135 1.87058e-136 0 
0 1.84795e-192 4.71565e-191 1.1882e-189 2.96028e-188 7.29168e-187 1.77553e-185 4.27357e-184 1.01663e-182 2.39001e-181 5.55199e-180 1.27427e-178 2.88923e-177 6.47083e-176 1.43133e-174 3.12658e-173 6.74353e-172 1.43594e-170 3.01827e-169 6.26166e-168 1.28195e-166 2.58961e-165 5.16079e-164 1.01449e-162 1.96682e-161 3.76002e-160 7.08687e-159 1.31668e-157 2.41099e-156 4.35029e-155 7.73336e-154 1.35414e-152 2.33515e-151 3.96495e-150 6.62737e-149 1.09027e-147 1.76488e-146 2.81053e-145 4.40204e-144 6.77962e-143 1.02644e-141 1.52732e-140 2.23292e-139 3.20664e-138 4.52204e-137 6.26037e-136 8.50578e-135 1.13381e-133 1.48231e-132 1.90003e-131 2.38703e-130 2.93811e-129 3.54186e-128 4.18e-127 4.82754e-126 5.45376e-125 6.02415e-124 6.50318e-123 6.85767e-122 7.06045e-121 7.09357e-120 6.95085e-119 6.63899e-118 6.17728e-117 5.59566e-116 4.93148e-115 4.22546e-114 3.51743e-113 2.84248e-112 2.22812e-111 1.6927e-110 1.24516e-109 8.86062e-109 6.09332e-108 4.04509e-107 2.58936e-106 1.59631e-105 9.46547e-105 5.39096e-104 2.94474e-103 1.54028e-102 7.70175e-102 3.67473e-101 1.66978e-100 7.21075e-100 2.95262e-99 1.14363e-98 4.17903e-98 1.43669e-97 4.63271e-97 1.39669e-96 3.92355e-96 1.02334e-95 2.46904e-95 5.49022e-95 1.12112e-94 2.09559e-94 3.57645e-94 5.56525e-94 7.89917e-94 1.0258e-93 1.22699e-93 1.36743e-93 1.44424e-93 1.47732e-93 1.49666e-93 1.52559e-93 1.56975e-93 1.61775e-93 1.6524e-93 1.66497e-93 1.66187e-93 1.65933e-93 1.67172e-93 1.7035e-93 1.74873e-93 1.79519e-93 1.829e-93 1.83786e-93 1.81174e-93 1.7422e-93 1.62345e-93 1.45705e-93 1.25741e-93 1.05291e-93 8.79578e-94 7.69736e-94 7.41355e-94 7.93029e-94 9.06351e-94 1.05375e-93 1.20731e-93 1.34453e-93 1.45019e-93 1.51727e-93 1.5484e-93 1.55566e-93 1.55576e-93 1.56209e-93 1.57898e-93 1.60161e-93 1.62056e-93 1.62697e-93 1.61554e-93 1.58565e-93 1.54188e-93 1.49365e-93 1.45192e-93 1.42429e-93 1.41252e-93 1.41383e-93 1.42306e-93 1.43377e-93 1.43937e-93 1.43588e-93 1.42501e-93 1.41454e-93 1.41518e-93 1.43629e-93 1.48307e-93 1.55459e-93 1.6415e-93 1.72603e-93 1.78767e-93 1.81222e-93 1.7976e-93 1.75378e-93 1.70035e-93 1.66392e-93 1.67242e-93 1.7436e-93 1.87314e-93 2.03138e-93 2.1727e-93 2.25249e-93 2.24305e-93 2.14309e-93 1.9786e-93 1.79404e-93 1.63536e-93 1.53199e-93 1.48851e-93 1.49151e-93 1.52474e-93 1.57884e-93 1.64826e-93 1.72115e-93 1.77467e-93 1.78183e-93 1.72488e-93 1.60523e-93 1.44321e-93 1.26934e-93 1.11277e-93 9.9212e-94 9.10736e-94 8.56628e-94 8.07811e-94 7.42103e-94 6.4741e-94 5.26811e-94 3.95544e-94 2.72491e-94 1.71845e-94 9.91949e-95 5.24744e-95 2.54941e-95 1.14063e-95 4.71406e-96 1.80547e-96 6.42915e-97 2.13546e-97 6.63687e-98 1.93586e-98 5.3145e-99 1.37686e-99 3.37485e-100 7.84471e-101 1.73307e-101 3.64638e-102 7.32071e-103 1.40497e-103 2.58185e-104 4.55018e-105 7.70184e-106 1.2538e-106 1.96557e-107 2.97101e-108 4.33481e-109 6.11156e-110 8.3347e-111 1.10053e-111 1.40824e-112 1.74778e-113 2.10566e-114 2.46441e-115 2.804e-116 3.10374e-117 3.34444e-118 3.51047e-119 3.59147e-120 3.58338e-121 3.48872e-122 3.31604e-123 3.07874e-124 2.7934e-125 2.478e-126 2.15015e-127 1.82567e-128 1.51753e-129 1.23534e-130 9.85217e-132 7.70075e-133 5.90106e-134 4.41146e-135 0 
0 4.5178e-191 1.15163e-189 2.89864e-188 7.21392e-187 1.77501e-185 4.31756e-184 1.03809e-182 2.46687e-181 5.79321e-180 1.34433e-178 3.08217e-177 6.981e-176 1.56184e-174 3.45111e-173 7.53058e-172 1.62251e-170 3.45129e-169 7.2468e-168 1.50184e-166 3.07149e-165 6.1981e-164 1.23392e-162 2.42309e-161 4.6928e-160 8.96205e-159 1.68741e-157 3.13184e-156 5.72883e-155 1.03262e-153 1.83376e-152 3.20768e-151 5.52584e-150 9.37298e-149 1.56508e-147 2.57209e-146 4.15936e-145 6.61698e-144 1.03535e-142 1.59293e-141 2.40928e-140 3.58134e-139 5.23063e-138 7.50404e-137 1.05717e-135 1.4621e-134 1.98453e-133 2.64274e-132 3.45161e-131 4.41993e-130 5.54732e-129 6.8213e-128 8.21494e-127 9.68554e-126 1.11751e-124 1.26124e-123 1.3918e-122 1.50102e-121 1.58132e-120 1.62652e-119 1.63258e-118 1.59821e-117 1.52506e-116 1.41765e-115 1.28296e-114 1.12962e-113 9.66992e-113 8.04211e-112 6.49292e-111 5.08489e-110 3.85943e-109 2.83644e-108 2.01659e-107 1.38553e-106 9.18972e-106 5.87733e-105 3.62011e-104 2.1447e-103 1.22043e-102 6.66073e-102 3.48101e-101 1.73912e-100 8.29095e-100 3.76429e-99 1.62426e-98 6.64565e-98 2.57204e-97 9.39162e-97 3.22631e-96 1.03961e-95 3.13209e-95 8.79279e-95 2.29191e-94 5.52649e-94 1.22822e-93 2.50682e-93 4.68372e-93 7.99058e-93 1.24304e-92 1.76395e-92 2.29039e-92 2.73946e-92 3.05303e-92 3.22469e-92 3.29874e-92 3.34203e-92 3.40655e-92 3.50494e-92 3.61188e-92 3.68916e-92 3.71733e-92 3.71069e-92 3.70533e-92 3.73324e-92 3.80434e-92 3.9054e-92 4.00913e-92 4.0846e-92 4.10435e-92 4.04598e-92 3.89063e-92 3.62543e-92 3.25388e-92 2.80821e-92 2.35176e-92 1.96491e-92 1.71979e-92 1.65648e-92 1.77182e-92 2.02474e-92 2.35372e-92 2.69651e-92 3.00283e-92 3.23875e-92 3.38861e-92 3.45829e-92 3.47472e-92 3.47508e-92 3.48922e-92 3.52676e-92 3.57703e-92 3.61905e-92 3.63307e-92 3.60737e-92 3.54056e-92 3.44293e-92 3.33546e-92 3.24258e-92 3.18117e-92 3.15513e-92 3.1582e-92 3.17883e-92 3.20266e-92 3.21502e-92 3.20712e-92 3.18278e-92 3.15939e-92 3.16082e-92 3.20792e-92 3.31228e-92 3.47179e-92 3.66559e-92 3.85406e-92 3.99152e-92 4.04634e-92 4.01387e-92 3.91634e-92 3.79742e-92 3.71648e-92 3.73569e-92 3.89458e-92 4.18347e-92 4.5362e-92 4.85114e-92 5.02888e-92 5.00772e-92 4.78482e-92 4.4181e-92 4.00662e-92 3.65277e-92 3.42211e-92 3.32495e-92 3.33147e-92 3.40549e-92 3.52615e-92 3.68099e-92 3.84353e-92 3.96282e-92 3.97869e-92 3.8516e-92 3.58457e-92 3.22295e-92 2.83473e-92 2.48492e-92 2.2152e-92 2.0331e-92 1.91195e-92 1.80277e-92 1.65606e-92 1.44481e-92 1.1758e-92 8.82975e-93 6.08419e-93 3.83803e-93 2.21618e-93 1.17281e-93 5.70044e-94 2.55167e-94 1.05513e-94 4.04341e-95 1.44071e-95 4.78844e-96 1.48923e-96 4.34689e-97 1.19422e-97 3.09627e-98 7.59518e-99 1.76687e-99 3.90654e-100 8.22613e-101 1.65291e-101 3.1749e-102 5.83938e-103 1.03001e-103 1.74497e-104 2.84318e-105 4.46122e-106 6.74931e-107 9.85641e-108 1.3909e-108 1.8986e-109 2.50926e-110 3.21385e-111 3.99248e-112 4.81451e-113 5.64009e-114 6.42337e-115 7.11679e-116 7.67604e-117 8.06484e-118 8.25887e-119 8.24824e-120 8.03815e-121 7.64774e-122 7.10738e-123 6.45498e-124 5.73178e-125 4.97835e-126 4.23124e-127 3.52057e-128 2.86875e-129 2.29019e-130 1.79187e-131 1.37447e-132 1.02854e-133 0 
0 1.09174e-189 2.77997e-188 6.98963e-187 1.73767e-185 4.27102e-184 1.03778e-182 2.49252e-181 5.91679e-180 1.38803e-178 3.21754e-177 7.36908e-176 1.6673e-174 3.72627e-173 8.22505e-172 1.79288e-170 3.85882e-169 8.19956e-168 1.71989e-166 3.56059e-165 7.27435e-164 1.4664e-162 2.91627e-161 5.72081e-160 1.1068e-158 2.11152e-157 3.97155e-156 7.36359e-155 1.34557e-153 2.4229e-152 4.29826e-151 7.51095e-150 1.29258e-148 2.19025e-147 3.65351e-146 5.99815e-145 9.68984e-144 1.53996e-142 2.40711e-141 3.69973e-140 5.59015e-139 8.30127e-138 1.2112e-136 1.7359e-135 2.4431e-134 3.37551e-133 4.5771e-132 6.08913e-131 7.94499e-130 1.01639e-128 1.27438e-127 1.56552e-126 1.88352e-125 2.21853e-124 2.55723e-123 2.88334e-122 3.17874e-121 3.42488e-120 3.60463e-119 3.70411e-118 3.71438e-117 3.63272e-116 3.46315e-115 3.21622e-114 2.90792e-113 2.55796e-112 2.18765e-111 1.8177e-110 1.46619e-109 1.14718e-108 8.69918e-108 6.38754e-107 4.53717e-106 3.11454e-105 2.06391e-104 1.31882e-103 8.11605e-103 4.80408e-102 2.73138e-101 1.48942e-100 7.7774e-100 3.88235e-99 1.84931e-98 8.38949e-98 3.61708e-97 1.47877e-96 5.71879e-96 2.0866e-95 7.16285e-95 2.30643e-94 6.94397e-94 1.94812e-93 5.07476e-93 1.22296e-92 2.71647e-92 5.54168e-92 1.03496e-91 1.76503e-91 2.74493e-91 3.89442e-91 5.05601e-91 6.04697e-91 6.73921e-91 7.11848e-91 7.28238e-91 7.37815e-91 7.5204e-91 7.73713e-91 7.9727e-91 8.14307e-91 8.2055e-91 8.19145e-91 8.18032e-91 8.24248e-91 8.39978e-91 8.62299e-91 8.85196e-91 9.0185e-91 9.06204e-91 8.93308e-91 8.58999e-91 8.00442e-91 7.18421e-91 6.20058e-91 5.19332e-91 4.33975e-91 3.79896e-91 3.65932e-91 3.91386e-91 4.47197e-91 5.19793e-91 5.9544e-91 6.63047e-91 7.15126e-91 7.48226e-91 7.63648e-91 7.67318e-91 7.6743e-91 7.70551e-91 7.78804e-91 7.89842e-91 7.99048e-91 8.02081e-91 7.96365e-91 7.81604e-91 7.60071e-91 7.36398e-91 7.1596e-91 7.02471e-91 6.96778e-91 6.97486e-91 7.02046e-91 7.07286e-91 7.09985e-91 7.08214e-91 7.02826e-91 6.97658e-91 6.97971e-91 7.08362e-91 7.31379e-91 7.66552e-91 8.09275e-91 8.5082e-91 8.81126e-91 8.93228e-91 8.86099e-91 8.64637e-91 8.38473e-91 8.20693e-91 8.24986e-91 8.60052e-91 9.23742e-91 1.00147e-90 1.07086e-90 1.11001e-90 1.10532e-90 1.05618e-90 9.7535e-91 8.84654e-91 8.06643e-91 7.55762e-91 7.34295e-91 7.35693e-91 7.51996e-91 7.78601e-91 8.12745e-91 8.48577e-91 8.74864e-91 8.78343e-91 8.50298e-91 7.91385e-91 7.11585e-91 6.25883e-91 5.48621e-91 4.89005e-91 4.48719e-91 4.21902e-91 3.9776e-91 3.65377e-91 3.18781e-91 2.59456e-91 1.94874e-91 1.34309e-91 8.47481e-92 4.89517e-92 2.59153e-92 1.26015e-92 5.64349e-93 2.33483e-93 8.95253e-94 3.19182e-94 1.06153e-94 3.30364e-95 9.64975e-96 2.65299e-96 6.88362e-97 1.68986e-97 3.9342e-98 8.7055e-99 1.83465e-99 3.68949e-100 7.09273e-101 1.30563e-101 2.30499e-102 3.90837e-103 6.37377e-104 1.00099e-104 1.51575e-105 2.21553e-106 3.12933e-107 4.2755e-108 5.65587e-109 7.25072e-110 9.01579e-111 1.08823e-111 1.27603e-112 1.45462e-113 1.61318e-114 1.74161e-115 1.83158e-116 1.87745e-117 1.87684e-118 1.83081e-119 1.74358e-120 1.62196e-121 1.47452e-122 1.3106e-123 1.13945e-124 9.69402e-126 8.07381e-127 6.5855e-128 5.26258e-129 4.1216e-130 3.16468e-131 2.37052e-132 0 
0 2.60745e-188 6.63242e-187 1.66579e-185 4.13684e-184 1.01571e-182 2.46536e-181 5.91496e-180 1.40261e-178 3.28691e-177 7.6112e-176 1.74134e-174 3.93573e-173 8.78673e-172 1.93746e-170 4.2188e-169 9.0706e-168 1.92538e-166 4.03434e-165 8.34334e-164 1.70278e-162 3.42897e-161 6.81222e-160 1.33496e-158 2.58006e-157 4.91706e-156 9.23892e-155 1.71121e-153 3.12374e-152 5.61897e-151 9.95791e-150 1.73831e-148 2.98845e-147 5.05869e-146 8.42973e-145 1.38254e-143 2.2312e-142 3.54236e-141 5.53147e-140 8.4933e-139 1.28202e-137 1.90186e-136 2.77215e-135 3.96908e-134 5.58051e-133 7.70268e-132 1.04343e-130 1.38675e-129 1.80762e-128 2.31017e-127 2.89373e-126 3.55133e-125 4.26854e-124 5.02288e-123 5.78408e-122 6.5154e-121 7.17597e-120 7.72421e-119 8.12182e-118 8.33798e-117 8.35314e-116 8.16175e-115 7.77342e-114 7.21236e-113 6.51488e-112 5.72548e-111 4.89208e-110 4.06102e-109 3.27268e-108 2.55828e-107 1.93819e-106 1.42187e-105 1.00907e-104 6.92052e-104 4.58195e-103 2.92523e-102 1.79862e-101 1.06372e-100 6.04262e-100 3.29224e-99 1.71767e-98 8.56719e-98 4.07753e-97 1.84829e-96 7.96243e-96 3.25272e-95 1.25695e-94 4.58275e-94 1.57201e-93 5.05827e-93 1.52186e-92 4.26675e-92 1.11078e-91 2.67532e-91 5.93929e-91 1.21104e-90 2.26077e-90 3.85415e-90 5.99215e-90 8.49965e-90 1.10334e-89 1.31952e-89 1.47059e-89 1.55343e-89 1.58929e-89 1.61023e-89 1.64124e-89 1.68843e-89 1.73972e-89 1.77685e-89 1.79053e-89 1.78759e-89 1.78532e-89 1.79901e-89 1.83341e-89 1.88215e-89 1.93211e-89 1.96844e-89 1.97793e-89 1.94977e-89 1.87486e-89 1.74705e-89 1.56806e-89 1.35345e-89 1.13371e-89 9.47532e-90 8.29587e-90 7.99143e-90 8.54675e-90 9.76423e-90 1.13479e-89 1.29982e-89 1.44732e-89 1.56097e-89 1.63324e-89 1.66698e-89 1.67509e-89 1.6754e-89 1.68221e-89 1.70014e-89 1.7241e-89 1.74404e-89 1.75052e-89 1.73795e-89 1.70571e-89 1.65877e-89 1.60722e-89 1.56276e-89 1.53347e-89 1.52117e-89 1.52278e-89 1.53275e-89 1.54414e-89 1.54996e-89 1.54604e-89 1.53425e-89 1.52296e-89 1.52364e-89 1.5463e-89 1.59648e-89 1.67315e-89 1.76625e-89 1.85678e-89 1.92283e-89 1.94924e-89 1.93377e-89 1.88708e-89 1.83018e-89 1.79157e-89 1.80105e-89 1.87755e-89 2.01635e-89 2.1857e-89 2.33682e-89 2.42204e-89 2.41177e-89 2.30468e-89 2.12857e-89 1.93095e-89 1.76094e-89 1.64999e-89 1.6031e-89 1.60606e-89 1.64156e-89 1.69955e-89 1.77398e-89 1.85206e-89 1.90932e-89 1.91686e-89 1.85569e-89 1.7272e-89 1.55312e-89 1.36609e-89 1.19739e-89 1.06713e-89 9.79027e-90 9.20347e-90 8.67575e-90 7.9691e-90 6.9531e-90 5.65978e-90 4.25169e-90 2.93096e-90 1.84993e-90 1.06889e-90 5.6609e-91 2.75384e-91 1.23387e-91 5.10744e-92 1.95947e-92 6.99024e-93 2.3263e-93 7.24461e-94 2.11758e-94 5.82605e-95 1.51279e-95 3.71658e-96 8.65945e-97 1.91767e-97 4.0447e-98 8.14066e-99 1.56629e-99 2.88568e-100 5.09883e-101 8.65314e-102 1.41239e-102 2.22012e-103 3.3648e-104 4.92269e-105 6.95937e-106 9.51703e-107 1.26012e-107 1.61695e-108 2.01244e-109 2.43133e-110 2.85361e-111 3.25605e-112 3.6144e-113 3.90586e-114 4.11155e-115 4.21856e-116 4.22126e-117 4.1217e-118 3.92913e-119 3.65863e-120 3.32929e-121 2.96208e-122 2.57778e-123 2.19524e-124 1.83015e-125 1.49426e-126 1.19527e-127 9.37054e-129 7.20215e-130 5.40014e-131 0 
0 6.15417e-187 1.56373e-185 3.92326e-184 9.73263e-183 2.38709e-181 5.78783e-180 1.38716e-178 3.28586e-177 7.692e-176 1.77928e-174 4.06646e-173 9.18122e-172 2.0476e-170 4.51018e-169 9.81054e-168 2.1071e-166 4.46798e-165 9.35217e-164 1.93209e-162 3.93907e-161 7.92403e-160 1.57261e-158 3.07857e-157 5.94377e-156 1.13159e-154 2.12402e-153 3.93e-152 7.16668e-151 1.28782e-149 2.27993e-148 3.9759e-147 6.82829e-146 1.15468e-144 1.92219e-143 3.14936e-142 5.07741e-141 8.053e-140 1.25623e-138 1.92694e-137 2.90569e-136 4.30625e-135 6.27053e-134 8.96901e-133 1.25979e-131 1.73713e-130 2.35084e-129 3.12126e-128 4.06455e-127 5.18948e-126 6.494e-125 7.96198e-124 9.56062e-123 1.12392e-121 1.293e-120 1.45508e-119 1.60106e-118 1.72173e-117 1.80862e-116 1.85499e-115 1.8566e-114 1.81234e-113 1.72449e-112 1.59852e-111 1.44258e-110 1.2666e-109 1.08123e-108 8.96728e-108 7.21988e-107 5.63868e-106 4.26807e-105 3.12825e-104 2.21805e-103 1.51986e-102 1.00538e-101 6.41294e-101 3.93965e-100 2.32793e-99 1.32128e-98 7.1927e-98 3.74952e-97 1.86859e-96 8.8862e-96 4.02474e-95 1.73248e-94 7.0718e-94 2.73067e-93 9.94841e-93 3.4101e-92 1.0965e-91 3.29674e-91 9.23691e-91 2.4032e-90 5.78478e-90 1.28355e-89 2.61595e-89 4.88138e-89 8.31878e-89 1.29297e-88 1.83365e-88 2.37995e-88 2.8461e-88 3.17197e-88 3.35083e-88 3.42838e-88 3.47365e-88 3.54044e-88 3.642e-88 3.7524e-88 3.8324e-88 3.86201e-88 3.85596e-88 3.85139e-88 3.88118e-88 3.95554e-88 4.06074e-88 4.16851e-88 4.24686e-88 4.26729e-88 4.2065e-88 4.04486e-88 3.7691e-88 3.38301e-88 2.92017e-88 2.44637e-88 2.04495e-88 1.79069e-88 1.72509e-88 1.84484e-88 2.10737e-88 2.44885e-88 2.80471e-88 3.12281e-88 3.36795e-88 3.52394e-88 3.59689e-88 3.61459e-88 3.6154e-88 3.63008e-88 3.6686e-88 3.71999e-88 3.76268e-88 3.77637e-88 3.74905e-88 3.67944e-88 3.57827e-88 3.46732e-88 3.37174e-88 3.30888e-88 3.28261e-88 3.28625e-88 3.30777e-88 3.33226e-88 3.34468e-88 3.33608e-88 3.31058e-88 3.28621e-88 3.28766e-88 3.33649e-88 3.44463e-88 3.6098e-88 3.81035e-88 4.00533e-88 4.14762e-88 4.20459e-88 4.1714e-88 4.07103e-88 3.9487e-88 3.86582e-88 3.88652e-88 4.05148e-88 4.35049e-88 4.71513e-88 5.04046e-88 5.22384e-88 5.20162e-88 4.97094e-88 4.59165e-88 4.16605e-88 3.79981e-88 3.56068e-88 3.45948e-88 3.46567e-88 3.54205e-88 3.66699e-88 3.82735e-88 3.99555e-88 4.11884e-88 4.13499e-88 4.00308e-88 3.72608e-88 3.35072e-88 2.94729e-88 2.5832e-88 2.30186e-88 2.11141e-88 1.98449e-88 1.87047e-88 1.71805e-88 1.49907e-88 1.22037e-88 9.16914e-89 6.32228e-89 3.9915e-89 2.30704e-89 1.22227e-89 5.94847e-90 2.6665e-90 1.10433e-90 4.23914e-91 1.51318e-91 5.03895e-92 1.57028e-92 4.59309e-93 1.26459e-93 3.28606e-94 8.07925e-95 1.88389e-95 4.17528e-96 8.81352e-97 1.77533e-97 3.41865e-98 6.30375e-99 1.11479e-99 1.89354e-100 3.0934e-101 4.86675e-102 7.3826e-103 1.08104e-103 1.52969e-104 2.09377e-105 2.77484e-106 3.56387e-107 4.43967e-108 5.36879e-109 6.30716e-110 7.20343e-111 8.00377e-112 8.65739e-113 9.12199e-114 9.36837e-115 9.38336e-116 9.17089e-117 8.75086e-118 8.15631e-119 7.42933e-120 6.61635e-121 5.76358e-122 4.91311e-123 4.10003e-124 3.35085e-125 2.68303e-126 2.1055e-127 1.61989e-128 1.21578e-129 0 