# vtk DataFile Version 3.0
Gray-Scott Simulation Output
ASCII
DATASET STRUCTURED_POINTS
DIMENSIONS 256 256 1
SPACING 1.0 1.0 1.0
ORIGIN 0 0 0
POINT_DATA 65536
SCALARS u double
LOOKUP_TABLE default
0 0 0 0 0 0 0 0 0 0 0 0 0 0 0 0 0 0 0 0 0 0 0 0 0 0 0 0 0 0 0 0 0 0 0 0 0 0 0 0 0 0 0 0 0 0 0 0 0 0 0 0 0 0 0 0 0 0 0 0 0 0 0 0 0 0 0 0 0 0 0 0 0 0 0 0 0 0 0 0 0 0 0 0 0 0 0 0 0 0 0 0 0 0 0 0 0 0 0 0 0 0 0 0 0 0 0 0 0 0 0 0 0 0 0 0 0 0 0 0 0 0 0 0 0 0 0 0 0 0 0 0 0 0 0 0 0 0 0 0 0 0 0 0 0 0 0 0 0 0 0 0 0 0 0 0 0 0 0 0 0 0 0 0 0 0 0 0 0 0 0 0 0 0 0 0 0 0 0 0 0 0 0 0 0 0 0 0 0 0 0 0 0 0 0 0 0 0 0 0 0 0 0 0 0 0 0 0 0 0 0 0 0 0 0 0 0 0 0 0 0 0 0 0 0 0 0 0 0 0 0 0 0 0 0 0 0 0 0 0 0 0 0 0 0 0 0 0 0 0 0 0 0 0 0 0 
0 3.95447e-107 2.54773e-106 1.58743e-105 9.78844e-105 5.97604e-104 3.61213e-103 2.16134e-102 1.28012e-101 7.5043e-101 4.35368e-100 2.49947e-99 1.41985e-98 7.9799e-98 4.43676e-97 2.44008e-96 1.32729e-95 7.14008e-95 3.79812e-94 1.99762e-93 1.03869e-92 5.33875e-92 2.71218e-91 1.36167e-90 6.75533e-90 3.31121e-89 1.60338e-88 7.66896e-88 3.6227e-87 1.6899e-86 7.78333e-86 3.53901e-85 1.58835e-84 7.03549e-84 3.07512e-83 1.32611e-82 5.6413e-82 2.36696e-81 9.79362e-81 3.99542e-80 1.60684e-79 6.36943e-79 2.48809e-78 9.57607e-78 3.63066e-77 1.35574e-76 4.98512e-76 1.80465e-75 6.43049e-75 2.25494e-74 7.77988e-74 2.64036e-73 8.81272e-73 2.8921e-72 9.32976e-72 2.95788e-71 9.21373e-71 2.81922e-70 8.47134e-70 2.49914e-69 7.23654e-69 2.05616e-68 5.73125e-68 1.56671e-67 4.19902e-67 1.10308e-66 2.83946e-66 7.15992e-66 1.76804e-65 4.27421e-65 1.01127e-64 2.34093e-64 5.30017e-64 1.17336e-63 2.53911e-63 5.3691e-63 1.10907e-62 2.23728e-62 4.4061e-62 8.46905e-62 1.58832e-61 2.90564e-61 5.18368e-61 9.01614e-61 1.5286e-60 2.52564e-60 4.06617e-60 6.37792e-60 9.74575e-60 1.45071e-59 2.10369e-59 2.97211e-59 4.09166e-59 5.49036e-59 7.18337e-59 9.16833e-59 1.14223e-58 1.3901e-58 1.65411e-58 1.92652e-58 2.19895e-58 2.46319e-58 2.71204e-58 2.93993e-58 3.14333e-58 3.32073e-58 3.47248e-58 3.60029e-58 3.70671e-58 3.79449e-58 3.86604e-58 3.92306e-58 3.96622e-58 3.99511e-58 4.00832e-58 4.0038e-58 3.97928e-58 3.93293e-58 3.864e-58 3.77344e-58 3.6643e-58 3.54189e-58 3.41349e-58 3.28781e-58 3.17405e-58 3.08085e-58 3.01519e-58 2.98157e-58 2.98145e-58 3.01319e-58 3.07242e-58 3.15273e-58 3.24657e-58 3.34627e-58 3.44476e-58 3.53625e-58 3.61651e-58 3.6829e-58 3.73423e-58 3.77052e-58 3.79267e-58 3.8022e-58 3.80105e-58 3.79137e-58 3.77545e-58 3.75558e-58 3.7339e-58 3.71238e-58 3.6927e-58 3.67622e-58 3.66402e-58 3.65692e-58 3.65558e-58 3.66056e-58 3.67232e-58 3.69118e-58 3.71726e-58 3.75035e-58 3.78984e-58 3.83472e-58 3.88368e-58 3.93526e-58 3.98815e-58 4.04138e-58 4.09442e-58 4.14724e-58 4.20002e-58 4.25285e-58 4.3053e-58 4.3561e-58 4.403e-58 4.44286e-58 4.4721e-58 4.48731e-58 4.48597e-58 4.46704e-58 4.43133e-58 4.38143e-58 4.32135e-58 4.25573e-58 4.18903e-58 4.1246e-58 4.06406e-58 4.00694e-58 3.95082e-58 3.89169e-58 3.8247e-58 3.74496e-58 3.64835e-58 3.53211e-58 3.39515e-58 3.23804e-58 3.06276e-58 2.87223e-58 2.66985e-58 2.45904e-58 2.24299e-58 2.02462e-58 1.80664e-58 1.59174e-58 1.38268e-58 1.18238e-58 9.93801e-59 8.19789e-59 6.62769e-59 5.24494e-59 4.05855e-59 3.06806e-59 2.26413e-59 1.63016e-59 1.14463e-59 7.83555e-60 5.22821e-60 3.3999e-60 2.15474e-60 1.33092e-60 8.01261e-61 4.70239e-61 2.69066e-61 1.50135e-61 8.1712e-62 4.33888e-62 2.24839e-62 1.13733e-62 5.61761e-63 2.71013e-63 1.27742e-63 5.88454e-64 2.65011e-64 1.16713e-64 5.02818e-65 2.1197e-65 8.74662e-66 3.5338e-66 1.39832e-66 5.42084e-67 2.05942e-67 7.66956e-68 2.80068e-68 1.00311e-68 3.52485e-69 1.21552e-69 4.11454e-70 1.36753e-70 4.46394e-71 1.43144e-71 4.51032e-72 1.39677e-72 4.25238e-73 1.27299e-73 3.748e-74 1.08554e-74 3.09257e-75 8.63133e-76 2.2214e-76 0 
0 2.54439e-106 1.63905e-105 1.02111e-104 6.29556e-104 3.84306e-103 2.32257e-102 1.38955e-101 8.22901e-101 4.82339e-100 2.79799e-99 1.60615e-98 9.12286e-98 5.12668e-97 2.85007e-96 1.56728e-95 8.52437e-95 4.58516e-94 2.4388e-93 1.28256e-92 6.66823e-92 3.42707e-91 1.74086e-90 8.73939e-90 4.3353e-89 2.12483e-88 1.02882e-87 4.92051e-87 2.32421e-86 1.08412e-85 4.9929e-85 2.27009e-84 1.01879e-83 4.51243e-83 1.97223e-82 8.50463e-82 3.61775e-81 1.51787e-80 6.2802e-80 2.56201e-79 1.03034e-78 4.08414e-78 1.59536e-77 6.14012e-77 2.32795e-76 8.69288e-76 3.19642e-75 1.15714e-74 4.12327e-74 1.44591e-73 4.9887e-73 1.69313e-72 5.65132e-72 1.85468e-71 5.98334e-71 1.89702e-70 5.9095e-70 1.80829e-69 5.43396e-69 1.60318e-68 4.64251e-68 1.3192e-67 3.67736e-67 1.00533e-66 2.69468e-66 7.07951e-66 1.82252e-65 4.59606e-65 1.13504e-64 2.74422e-64 6.49343e-64 1.50329e-63 3.404e-63 7.53667e-63 1.63108e-62 3.4494e-62 7.12604e-62 1.43766e-61 2.83164e-61 5.44332e-61 1.02097e-60 1.86793e-60 3.33272e-60 5.79725e-60 9.82955e-60 1.62423e-59 2.61515e-59 4.10224e-59 6.26881e-59 9.33199e-59 1.35331e-58 1.91204e-58 2.63237e-58 3.5323e-58 4.62158e-58 5.89866e-58 7.34875e-58 8.94332e-58 1.06415e-57 1.23936e-57 1.41456e-57 1.58445e-57 1.74442e-57 1.89089e-57 2.02157e-57 2.13551e-57 2.23294e-57 2.31497e-57 2.38325e-57 2.43954e-57 2.4854e-57 2.52194e-57 2.54959e-57 2.56809e-57 2.57655e-57 2.57363e-57 2.55788e-57 2.52815e-57 2.48393e-57 2.42585e-57 2.35585e-57 2.27733e-57 2.19498e-57 2.11437e-57 2.04142e-57 1.98166e-57 1.93957e-57 1.91803e-57 1.91799e-57 1.9384e-57 1.97643e-57 2.02797e-57 2.0882e-57 2.15217e-57 2.21536e-57 2.27405e-57 2.32553e-57 2.3681e-57 2.40102e-57 2.42429e-57 2.43848e-57 2.44459e-57 2.44384e-57 2.43763e-57 2.42743e-57 2.41468e-57 2.40079e-57 2.387e-57 2.3744e-57 2.36384e-57 2.35602e-57 2.35147e-57 2.35061e-57 2.3538e-57 2.36133e-57 2.37341e-57 2.39011e-57 2.41129e-57 2.43658e-57 2.46533e-57 2.49668e-57 2.52973e-57 2.56361e-57 2.5977e-57 2.63169e-57 2.66553e-57 2.69935e-57 2.7332e-57 2.76682e-57 2.79939e-57 2.82946e-57 2.85502e-57 2.87377e-57 2.88353e-57 2.88268e-57 2.87056e-57 2.84767e-57 2.81569e-57 2.77717e-57 2.73511e-57 2.69235e-57 2.65105e-57 2.61223e-57 2.57562e-57 2.53964e-57 2.50173e-57 2.45878e-57 2.40765e-57 2.3457e-57 2.27116e-57 2.18332e-57 2.08254e-57 1.97008e-57 1.84782e-57 1.71792e-57 1.58256e-57 1.44378e-57 1.30347e-57 1.16334e-57 1.02514e-57 8.90633e-58 7.61713e-58 6.40304e-58 5.2824e-58 4.27096e-58 3.3801e-58 2.61564e-58 1.97734e-58 1.45922e-58 1.05063e-58 7.37695e-59 5.04972e-59 3.36924e-59 2.19091e-59 1.38844e-59 8.57538e-60 5.16229e-60 3.02936e-60 1.73322e-60 9.67023e-61 5.26258e-61 2.79413e-61 1.44776e-61 7.3226e-62 3.61644e-62 1.7445e-62 8.22181e-63 3.78704e-63 1.70531e-63 7.50948e-64 3.23486e-64 1.36355e-64 5.62591e-65 2.27274e-65 8.9923e-66 3.48568e-66 1.32412e-66 4.93073e-67 1.80039e-67 6.44783e-68 2.26554e-68 7.81193e-69 2.64416e-69 8.78767e-70 2.86832e-70 9.1972e-71 2.89779e-71 8.97353e-72 2.7318e-72 8.17754e-73 2.40759e-73 6.9729e-74 1.98645e-74 5.54402e-75 1.42681e-75 0 
0 1.58313e-105 1.01969e-104 6.35167e-104 3.91551e-103 2.38985e-102 1.44413e-101 8.63877e-101 5.11529e-100 2.99792e-99 1.73884e-98 9.98037e-98 5.66812e-97 3.18488e-96 1.77037e-95 9.73433e-95 5.29388e-94 2.84721e-93 1.51425e-92 7.96262e-92 4.13949e-91 2.12725e-90 1.08049e-89 5.42375e-89 2.6903e-88 1.31847e-87 6.38343e-87 3.05276e-86 1.44187e-85 6.72513e-85 3.09707e-84 1.40804e-83 6.31878e-83 2.79858e-82 1.22311e-81 5.27406e-81 2.24343e-80 9.41227e-80 3.89422e-79 1.58861e-78 6.38867e-78 2.53235e-77 9.89184e-77 3.80708e-76 1.44341e-75 5.3899e-75 1.98191e-74 7.17486e-74 2.55669e-73 8.96575e-73 3.09348e-72 1.04994e-71 3.50462e-71 1.15021e-70 3.71087e-70 1.1766e-69 3.66549e-69 1.1217e-68 3.37098e-68 9.94615e-68 2.88044e-67 8.18565e-67 2.28201e-66 6.23922e-66 1.67251e-65 4.39451e-65 1.13142e-64 2.85354e-64 7.04788e-64 1.70418e-63 4.03293e-63 9.33772e-63 2.11466e-62 4.68255e-62 1.01352e-61 2.14364e-61 4.42905e-61 8.93659e-61 1.76038e-60 3.38441e-60 6.34865e-60 1.16166e-59 2.07284e-59 3.60607e-59 6.1149e-59 1.01052e-58 1.62716e-58 2.55264e-58 3.90109e-58 5.80768e-58 8.42268e-58 1.19006e-57 1.63845e-57 2.19864e-57 2.87669e-57 3.67163e-57 4.5742e-57 5.56662e-57 6.62345e-57 7.71367e-57 8.80362e-57 9.86042e-57 1.08552e-56 1.17658e-56 1.2578e-56 1.32859e-56 1.3891e-56 1.44003e-56 1.48239e-56 1.5173e-56 1.54574e-56 1.56839e-56 1.58552e-56 1.59697e-56 1.6022e-56 1.60038e-56 1.5906e-56 1.57215e-56 1.54472e-56 1.50868e-56 1.46525e-56 1.41654e-56 1.36545e-56 1.31545e-56 1.27019e-56 1.23313e-56 1.20703e-56 1.19369e-56 1.19369e-56 1.20638e-56 1.23e-56 1.262e-56 1.29939e-56 1.33909e-56 1.37831e-56 1.41473e-56 1.44666e-56 1.47307e-56 1.49349e-56 1.50791e-56 1.51671e-56 1.52049e-56 1.52002e-56 1.51617e-56 1.50984e-56 1.50194e-56 1.49333e-56 1.48479e-56 1.47698e-56 1.47043e-56 1.46559e-56 1.46277e-56 1.46224e-56 1.46421e-56 1.46887e-56 1.47635e-56 1.48669e-56 1.49981e-56 1.51548e-56 1.53328e-56 1.55271e-56 1.57318e-56 1.59417e-56 1.6153e-56 1.63635e-56 1.65733e-56 1.67829e-56 1.69927e-56 1.72011e-56 1.74031e-56 1.75895e-56 1.77481e-56 1.78644e-56 1.7925e-56 1.79198e-56 1.78447e-56 1.77028e-56 1.75045e-56 1.72657e-56 1.70049e-56 1.67398e-56 1.64837e-56 1.6243e-56 1.6016e-56 1.57929e-56 1.55578e-56 1.52915e-56 1.49744e-56 1.45902e-56 1.41278e-56 1.35829e-56 1.29576e-56 1.22598e-56 1.15009e-56 1.06944e-56 9.85367e-57 8.99141e-57 8.11919e-57 7.24778e-57 6.38791e-57 5.5507e-57 4.74793e-57 3.99166e-57 3.2934e-57 2.66303e-57 2.10769e-57 1.63108e-57 1.23307e-57 9.09983e-58 6.55176e-58 4.60019e-58 3.14884e-58 2.10085e-58 1.36603e-58 8.65634e-59 5.34599e-59 3.21796e-59 1.88821e-59 1.08021e-59 6.02625e-60 3.27915e-60 1.74085e-60 9.01902e-61 4.56119e-61 2.25238e-61 1.08637e-61 5.11941e-62 2.35776e-62 1.06157e-62 4.67414e-63 2.01324e-63 8.48514e-64 3.50049e-64 1.41395e-64 5.59381e-65 2.16809e-65 8.23509e-66 3.06626e-66 1.11949e-66 4.00891e-67 1.40846e-67 4.85616e-68 1.64356e-68 5.46183e-69 1.78262e-69 5.71555e-70 1.8007e-70 5.57586e-71 1.69736e-71 5.08073e-72 1.49577e-72 4.33192e-73 1.23404e-73 3.444e-74 8.86329e-75 0 
0 9.74798e-105 6.27776e-104 3.9099e-103 2.40994e-102 1.47072e-101 8.88603e-101 5.31493e-100 3.14674e-99 1.84398e-98 1.0694e-97 6.1373e-97 3.48513e-96 1.95805e-95 1.08829e-94 5.98329e-94 3.25358e-93 1.7497e-92 9.30459e-92 4.89231e-91 2.5431e-90 1.30676e-89 6.63684e-89 3.33122e-88 1.65223e-87 8.0967e-87 3.91975e-86 1.87442e-85 8.85266e-85 4.12876e-84 1.90127e-83 8.64344e-83 3.87867e-82 1.71778e-81 7.50717e-81 3.23699e-80 1.37687e-79 5.77649e-79 2.3899e-78 9.74921e-78 3.92063e-77 1.55405e-76 6.07039e-76 2.33632e-75 8.8579e-75 3.30771e-74 1.21629e-73 4.40328e-73 1.5691e-72 5.50267e-72 1.89867e-71 6.44444e-71 2.15121e-70 7.06062e-70 2.27806e-69 7.22345e-69 2.25049e-68 6.88739e-68 2.06998e-67 6.10803e-67 1.76906e-66 5.02779e-66 1.40179e-65 3.83301e-65 1.0276e-64 2.70031e-64 6.95308e-64 1.75383e-63 4.33226e-63 1.04767e-62 2.47962e-62 5.74196e-62 1.30052e-61 2.88015e-61 6.23478e-61 1.31886e-60 2.7253e-60 5.49962e-60 1.08349e-59 2.08332e-59 3.90848e-59 7.15253e-59 1.27643e-58 2.22082e-58 3.7663e-58 6.22465e-58 1.0024e-57 1.57267e-57 2.40363e-57 3.5786e-57 5.19023e-57 7.33376e-57 1.00973e-56 1.355e-56 1.77291e-56 2.26283e-56 2.81906e-56 3.43061e-56 4.0818e-56 4.75346e-56 5.42484e-56 6.07567e-56 6.68818e-56 7.24868e-56 7.74844e-56 8.18387e-56 8.55589e-56 8.86885e-56 9.12907e-56 9.34343e-56 9.51797e-56 9.65692e-56 9.76199e-56 9.83222e-56 9.86422e-56 9.85295e-56 9.79287e-56 9.6795e-56 9.51099e-56 9.28964e-56 9.02291e-56 8.72372e-56 8.40992e-56 8.10282e-56 7.82491e-56 7.59731e-56 7.43713e-56 7.35533e-56 7.35548e-56 7.43355e-56 7.57882e-56 7.77555e-56 8.00532e-56 8.24928e-56 8.4902e-56 8.71391e-56 8.91007e-56 9.07225e-56 9.1976e-56 9.28615e-56 9.34015e-56 9.36333e-56 9.36043e-56 9.33676e-56 9.29791e-56 9.24942e-56 9.19658e-56 9.14415e-56 9.09622e-56 9.0561e-56 9.02639e-56 9.00909e-56 9.00582e-56 9.0179e-56 9.04646e-56 9.0923e-56 9.1557e-56 9.23616e-56 9.33222e-56 9.44142e-56 9.56055e-56 9.6861e-56 9.81485e-56 9.94443e-56 1.00736e-55 1.02023e-55 1.03309e-55 1.04597e-55 1.05876e-55 1.07116e-55 1.0826e-55 1.09234e-55 1.09949e-55 1.10321e-55 1.10289e-55 1.09829e-55 1.08958e-55 1.07741e-55 1.06275e-55 1.04674e-55 1.03046e-55 1.01474e-55 9.99966e-56 9.86031e-56 9.72337e-56 9.57908e-56 9.41557e-56 9.22092e-56 8.98502e-56 8.7011e-56 8.36644e-56 7.98238e-56 7.55367e-56 7.08735e-56 6.59158e-56 6.07462e-56 5.54421e-56 5.00742e-56 4.47089e-56 3.9412e-56 3.42525e-56 2.93032e-56 2.46389e-56 2.03311e-56 1.6441e-56 1.30133e-56 1.00711e-56 7.61378e-57 5.61885e-57 4.04547e-57 2.84037e-57 1.94417e-57 1.29705e-57 8.43326e-58 5.34363e-58 3.29985e-58 1.98613e-58 1.16529e-58 6.66573e-59 3.71824e-59 2.02302e-59 1.07386e-59 5.56278e-60 2.81291e-60 1.38887e-60 6.69796e-61 3.15593e-61 1.45328e-61 6.54244e-62 2.88029e-62 1.24043e-62 5.22734e-63 2.15623e-63 8.70856e-64 3.44482e-64 1.33501e-64 5.0702e-65 1.88763e-65 6.89099e-66 2.46741e-66 8.66795e-67 2.98829e-67 1.01129e-67 3.36041e-68 1.09667e-68 3.51595e-69 1.10763e-69 3.42954e-70 1.04393e-70 3.12463e-71 9.19848e-72 2.66385e-72 7.58822e-73 2.11767e-73 5.44977e-74 0 
0 5.94265e-104 3.82659e-103 2.38295e-102 1.46858e-101 8.96115e-101 5.41357e-100 3.23756e-99 1.91658e-98 1.12297e-97 6.51182e-97 3.73669e-96 2.12167e-95 1.19188e-94 6.62383e-94 3.64132e-93 1.97986e-92 1.06462e-91 5.6609e-91 2.9762e-90 1.54694e-89 7.94818e-89 4.03641e-88 2.02583e-87 1.0047e-86 4.92314e-86 2.38322e-85 1.13958e-84 5.38175e-84 2.50983e-83 1.1557e-82 5.25372e-82 2.35745e-81 1.04402e-80 4.56251e-80 1.96723e-79 8.3675e-79 3.51039e-78 1.45233e-77 5.92444e-77 2.38249e-76 9.4436e-76 3.68885e-75 1.41974e-74 5.38285e-74 2.0101e-73 7.39158e-73 2.676e-72 9.53621e-72 3.34437e-71 1.15401e-70 3.91711e-70 1.30764e-69 4.29213e-69 1.38491e-68 4.39171e-68 1.36836e-67 4.18805e-67 1.25881e-66 3.7148e-66 1.07602e-65 3.05842e-65 8.52802e-65 2.33213e-64 6.253e-64 1.64334e-63 4.23199e-63 1.0676e-62 2.6375e-62 6.37912e-62 1.51001e-61 3.49716e-61 7.92193e-61 1.75465e-60 3.79891e-60 8.0371e-60 1.66102e-59 3.35239e-59 6.60549e-59 1.27027e-58 2.38346e-58 4.3623e-58 7.78586e-58 1.3548e-57 2.29788e-57 3.79816e-57 6.11706e-57 9.59796e-57 1.46705e-56 2.18435e-56 3.16828e-56 4.47698e-56 6.16429e-56 8.27235e-56 1.08238e-55 1.38149e-55 1.72106e-55 2.09438e-55 2.49184e-55 2.90174e-55 3.3114e-55 3.70844e-55 4.082e-55 4.42374e-55 4.72834e-55 4.99362e-55 5.22018e-55 5.41068e-55 5.569e-55 5.69936e-55 5.80546e-55 5.88989e-55 5.95371e-55 5.99636e-55 6.01576e-55 6.00885e-55 5.97227e-55 5.90328e-55 5.80076e-55 5.66609e-55 5.50381e-55 5.32179e-55 5.13089e-55 4.94406e-55 4.77501e-55 4.63658e-55 4.53918e-55 4.4895e-55 4.48968e-55 4.53728e-55 4.62577e-55 4.74556e-55 4.88543e-55 5.03391e-55 5.18053e-55 5.31665e-55 5.43599e-55 5.53464e-55 5.61087e-55 5.66471e-55 5.69753e-55 5.71161e-55 5.70983e-55 5.69542e-55 5.67179e-55 5.64231e-55 5.61019e-55 5.57833e-55 5.5492e-55 5.52483e-55 5.50677e-55 5.49626e-55 5.49427e-55 5.5016e-55 5.51893e-55 5.54676e-55 5.58526e-55 5.63413e-55 5.69247e-55 5.75881e-55 5.83117e-55 5.90745e-55 5.98567e-55 6.0644e-55 6.14289e-55 6.22107e-55 6.29923e-55 6.37751e-55 6.45528e-55 6.53067e-55 6.60029e-55 6.65951e-55 6.70299e-55 6.72567e-55 6.72378e-55 6.69577e-55 6.64284e-55 6.56884e-55 6.47971e-55 6.38236e-55 6.28339e-55 6.1878e-55 6.09797e-55 6.01324e-55 5.92998e-55 5.84226e-55 5.74284e-55 5.62448e-55 5.48102e-55 5.30834e-55 5.10477e-55 4.87111e-55 4.61024e-55 4.3264e-55 4.02456e-55 3.70969e-55 3.3865e-55 3.05927e-55 2.73204e-55 2.40884e-55 2.09386e-55 1.79159e-55 1.50662e-55 1.24334e-55 1.00554e-55 7.95951e-56 6.16017e-56 4.65724e-56 3.437e-56 2.47454e-56 1.73736e-56 1.18913e-56 7.93285e-57 5.1575e-57 3.26773e-57 2.01774e-57 1.21433e-57 7.12389e-58 4.07457e-58 2.27258e-58 1.23632e-58 6.56175e-59 3.39865e-59 1.71835e-59 8.48316e-60 4.09051e-60 1.92708e-60 8.87277e-61 3.99383e-61 1.75802e-61 7.57007e-62 3.18969e-62 1.31554e-62 5.31247e-63 2.10116e-63 8.14181e-64 3.09178e-64 1.15093e-64 4.20108e-65 1.50408e-65 5.28324e-66 1.82122e-66 6.16272e-67 2.0476e-67 6.68178e-68 2.142e-68 6.74741e-69 2.08904e-69 6.35846e-70 1.90306e-70 5.60201e-71 1.62224e-71 4.62086e-72 1.28951e-72 3.3184e-73 0 
0 3.58659e-103 2.30918e-102 1.43781e-101 8.85982e-101 5.4055e-100 3.26513e-99 1.95245e-98 1.15567e-97 6.77057e-97 3.92562e-96 2.25239e-95 1.27875e-94 7.18282e-94 3.99139e-93 2.19396e-92 1.19278e-91 6.41325e-91 3.4098e-90 1.79253e-89 9.31621e-89 4.78628e-88 2.43048e-87 1.21974e-86 6.04879e-86 2.96376e-85 1.43462e-84 6.85945e-84 3.23925e-83 1.51058e-82 6.95542e-82 3.16173e-81 1.41868e-80 6.28254e-80 2.74546e-79 1.18373e-78 5.03484e-78 2.11222e-77 8.73858e-77 3.56468e-76 1.43352e-75 5.68213e-75 2.21956e-74 8.54262e-74 3.23893e-73 1.20953e-72 4.44784e-72 1.61033e-71 5.73879e-71 2.0127e-70 6.94537e-70 2.35763e-69 7.87089e-69 2.58368e-68 8.33721e-68 2.64402e-67 8.23886e-67 2.52185e-66 7.5807e-66 2.23731e-65 6.48121e-65 1.84239e-64 5.13787e-64 1.40521e-63 3.76816e-63 9.90432e-63 2.55094e-62 6.43612e-62 1.59026e-61 3.84678e-61 9.10708e-61 2.10949e-60 4.77924e-60 1.05873e-59 2.29255e-59 4.85092e-59 1.00269e-58 2.024e-58 3.98864e-58 7.67151e-58 1.43964e-57 2.63524e-57 4.70403e-57 8.18645e-57 1.38867e-56 2.29559e-56 3.69752e-56 5.80216e-56 8.86938e-56 1.3207e-55 1.91573e-55 2.7072e-55 3.72767e-55 5.0026e-55 6.54569e-55 8.35458e-55 1.0408e-54 1.26654e-54 1.50684e-54 1.75463e-54 2.00222e-54 2.24213e-54 2.4678e-54 2.67418e-54 2.85806e-54 3.01814e-54 3.15478e-54 3.26963e-54 3.36503e-54 3.44354e-54 3.50741e-54 3.55822e-54 3.59661e-54 3.62226e-54 3.63391e-54 3.62972e-54 3.60766e-54 3.56608e-54 3.50429e-54 3.42314e-54 3.32536e-54 3.21568e-54 3.10064e-54 2.98807e-54 2.88621e-54 2.80282e-54 2.74417e-54 2.71428e-54 2.71444e-54 2.74319e-54 2.79657e-54 2.86882e-54 2.95316e-54 3.04267e-54 3.13104e-54 3.21307e-54 3.28498e-54 3.34441e-54 3.39033e-54 3.42276e-54 3.44251e-54 3.45098e-54 3.4499e-54 3.44121e-54 3.42698e-54 3.40922e-54 3.38988e-54 3.37071e-54 3.35318e-54 3.33851e-54 3.32764e-54 3.32132e-54 3.32011e-54 3.32452e-54 3.33494e-54 3.35167e-54 3.37483e-54 3.40422e-54 3.43932e-54 3.47923e-54 3.52277e-54 3.56866e-54 3.61573e-54 3.66311e-54 3.71034e-54 3.75739e-54 3.80444e-54 3.85157e-54 3.89841e-54 3.94381e-54 3.98575e-54 4.02143e-54 4.04763e-54 4.06131e-54 4.06018e-54 4.04333e-54 4.01146e-54 3.9669e-54 3.91322e-54 3.85459e-54 3.79499e-54 3.73741e-54 3.68332e-54 3.6323e-54 3.58217e-54 3.52934e-54 3.46948e-54 3.39819e-54 3.31179e-54 3.20777e-54 3.08513e-54 2.94434e-54 2.78711e-54 2.616e-54 2.43398e-54 2.24403e-54 2.04898e-54 1.8514e-54 1.65372e-54 1.45837e-54 1.26791e-54 1.08505e-54 9.12592e-55 7.53206e-55 6.092e-55 4.82256e-55 3.73254e-55 2.82196e-55 2.08259e-55 1.49939e-55 1.05268e-55 7.20471e-56 4.80606e-56 3.12441e-56 1.97942e-56 1.22213e-56 7.35432e-57 4.31394e-57 2.4671e-57 1.37584e-57 7.48378e-58 3.97147e-58 2.05673e-58 1.03972e-58 5.13217e-59 2.47432e-59 1.1655e-59 5.36545e-60 2.41474e-60 1.06277e-60 4.57563e-61 1.92768e-61 7.94925e-62 3.20965e-62 1.26928e-62 4.91769e-63 1.8672e-63 6.9498e-64 2.53648e-64 9.08008e-65 3.18909e-65 1.09921e-65 3.71914e-66 1.23558e-66 4.03158e-67 1.2923e-67 4.07045e-68 1.26013e-68 3.83519e-69 1.14777e-69 3.37846e-70 9.7828e-71 2.78643e-71 7.77549e-72 2.00085e-72 0 
0 2.14279e-102 1.37943e-101 8.58787e-101 5.29119e-100 3.22781e-99 1.94948e-98 1.16559e-97 6.8984e-97 4.04099e-96 2.34272e-95 1.34402e-94 7.62962e-94 4.28514e-93 2.38094e-92 1.30861e-91 7.1138e-91 3.82452e-90 2.03324e-89 1.06878e-88 5.55425e-88 2.85332e-87 1.4488e-86 7.27031e-86 3.60517e-85 1.76633e-84 8.54946e-84 4.08759e-83 1.93019e-82 9.00071e-82 4.14417e-81 1.88374e-80 8.45211e-80 3.74286e-79 1.63558e-78 7.05182e-78 2.99934e-77 1.25827e-76 5.20562e-76 2.1235e-75 8.53956e-75 3.38491e-74 1.32224e-73 5.0891e-73 1.92958e-72 7.20593e-72 2.64996e-71 9.59446e-71 3.41938e-70 1.1993e-69 4.13877e-69 1.40501e-68 4.69091e-68 1.53995e-67 4.96961e-67 1.57618e-66 4.91187e-66 1.50363e-65 4.52039e-65 1.33426e-64 3.86563e-64 1.099e-63 3.06516e-63 8.38429e-63 2.24861e-62 5.91111e-62 1.52267e-61 3.84232e-61 9.49517e-61 2.2972e-60 5.43937e-60 1.26013e-59 2.8554e-59 6.32648e-59 1.37014e-58 2.89963e-58 5.99452e-58 1.21023e-57 2.38535e-57 4.58854e-57 8.61217e-57 1.57668e-56 2.81486e-56 4.89938e-56 8.31191e-56 1.3742e-55 2.21368e-55 3.47407e-55 5.31108e-55 7.90916e-55 1.14734e-54 1.62145e-54 2.23274e-54 2.99648e-54 3.92083e-54 5.00437e-54 6.23433e-54 7.58626e-54 9.02528e-54 1.05089e-53 1.1991e-53 1.34269e-53 1.4777e-53 1.60114e-53 1.71108e-53 1.80674e-53 1.88837e-53 1.95693e-53 2.01386e-53 2.06068e-53 2.09876e-53 2.12904e-53 2.15191e-53 2.16718e-53 2.17411e-53 2.17159e-53 2.15842e-53 2.1336e-53 2.09672e-53 2.04829e-53 1.98994e-53 1.92448e-53 1.85583e-53 1.78865e-53 1.72787e-53 1.67812e-53 1.64313e-53 1.62532e-53 1.62546e-53 1.64265e-53 1.67455e-53 1.7177e-53 1.76806e-53 1.82151e-53 1.87426e-53 1.92322e-53 1.96613e-53 2.0016e-53 2.02899e-53 2.04832e-53 2.0601e-53 2.06514e-53 2.06449e-53 2.05931e-53 2.05081e-53 2.04022e-53 2.02869e-53 2.01726e-53 2.00681e-53 1.99807e-53 1.99159e-53 1.98782e-53 1.9871e-53 1.98972e-53 1.99593e-53 2.00589e-53 2.01969e-53 2.0372e-53 2.05811e-53 2.08188e-53 2.10783e-53 2.13518e-53 2.16323e-53 2.19146e-53 2.21961e-53 2.24766e-53 2.27571e-53 2.30381e-53 2.33174e-53 2.35882e-53 2.38384e-53 2.40513e-53 2.42078e-53 2.42894e-53 2.42828e-53 2.41824e-53 2.39924e-53 2.37266e-53 2.34064e-53 2.30567e-53 2.27012e-53 2.23578e-53 2.20352e-53 2.17309e-53 2.14319e-53 2.11169e-53 2.07599e-53 2.03348e-53 1.98194e-53 1.91989e-53 1.84672e-53 1.7627e-53 1.66885e-53 1.56669e-53 1.45799e-53 1.3445e-53 1.22792e-53 1.10976e-53 9.91486e-54 8.74546e-54 7.60475e-54 6.50908e-54 5.4753e-54 4.51956e-54 3.65581e-54 2.89422e-54 2.24015e-54 1.69369e-54 1.24994e-54 8.99897e-55 6.31772e-55 4.32374e-55 2.88407e-55 1.87478e-55 1.18763e-55 7.3319e-56 4.41157e-56 2.58746e-56 1.47955e-56 8.24999e-57 4.48688e-57 2.38074e-57 1.23274e-57 6.23081e-58 3.0751e-58 1.48233e-58 6.98124e-59 3.21333e-59 1.44594e-59 6.36283e-60 2.73899e-60 1.15374e-60 4.75697e-61 1.92041e-61 7.59331e-62 2.9415e-62 1.1167e-62 4.15582e-63 1.51655e-63 5.42823e-64 1.90625e-64 6.56961e-65 2.22256e-65 7.383e-66 2.40874e-66 7.7203e-67 2.43149e-67 7.52673e-68 2.29056e-68 6.85449e-69 2.01747e-69 5.84145e-70 1.66371e-70 4.6423e-71 1.19454e-71 0 
0 1.26716e-101 8.15639e-101 5.07725e-100 3.12781e-99 1.90784e-98 1.15212e-97 6.88768e-97 4.07591e-96 2.38734e-95 1.38388e-94 7.93848e-94 4.50596e-93 2.53049e-92 1.40587e-91 7.72617e-91 4.19967e-90 2.25763e-89 1.20012e-88 6.30796e-88 3.27787e-87 1.68377e-86 8.54892e-86 4.28968e-85 2.12701e-84 1.04205e-83 5.04349e-83 2.41122e-82 1.13854e-81 5.30892e-81 2.44428e-80 1.11101e-79 4.98481e-79 2.20737e-78 9.64572e-78 4.1587e-77 1.76879e-76 7.4203e-76 3.06987e-75 1.25228e-74 5.03604e-74 1.99621e-73 7.7979e-73 3.00138e-72 1.13804e-71 4.25011e-71 1.56303e-70 5.65939e-70 2.01707e-69 7.07501e-69 2.44173e-68 8.28968e-68 2.76789e-67 9.08728e-67 2.93285e-66 9.3028e-66 2.89934e-65 8.87646e-65 2.66885e-64 7.87845e-64 2.28283e-63 6.49094e-63 1.8106e-62 4.95332e-62 1.32864e-61 3.49322e-61 8.99973e-61 2.27136e-60 5.61389e-60 1.35841e-59 3.21702e-59 7.4541e-59 1.68935e-58 3.7436e-58 8.10903e-58 1.71641e-57 3.54901e-57 7.16629e-57 1.4127e-56 2.71798e-56 5.10216e-56 9.34232e-56 1.66814e-55 2.90389e-55 4.92719e-55 8.14713e-55 1.31257e-54 2.06013e-54 3.14979e-54 4.69102e-54 6.80551e-54 9.61832e-54 1.32451e-53 1.77764e-53 2.32605e-53 2.96888e-53 3.69851e-53 4.50043e-53 5.3539e-53 6.23365e-53 7.11236e-53 7.96339e-53 8.76342e-53 9.49455e-53 1.01455e-52 1.07116e-52 1.11945e-52 1.15998e-52 1.19362e-52 1.22127e-52 1.24375e-52 1.26162e-52 1.27511e-52 1.28411e-52 1.28819e-52 1.28669e-52 1.2789e-52 1.26423e-52 1.24243e-52 1.21381e-52 1.17932e-52 1.14064e-52 1.10007e-52 1.06036e-52 1.02445e-52 9.9505e-53 9.74386e-53 9.63875e-53 9.63975e-53 9.7416e-53 9.93035e-53 1.01856e-52 1.04834e-52 1.07994e-52 1.11113e-52 1.14007e-52 1.16543e-52 1.18638e-52 1.20256e-52 1.21398e-52 1.22094e-52 1.22391e-52 1.22352e-52 1.22046e-52 1.21544e-52 1.20918e-52 1.20237e-52 1.19562e-52 1.18946e-52 1.1843e-52 1.18047e-52 1.17825e-52 1.17782e-52 1.17936e-52 1.18302e-52 1.1889e-52 1.19703e-52 1.20736e-52 1.2197e-52 1.23373e-52 1.24904e-52 1.26518e-52 1.28173e-52 1.2984e-52 1.31501e-52 1.33157e-52 1.34813e-52 1.36472e-52 1.38121e-52 1.39721e-52 1.412e-52 1.42458e-52 1.43383e-52 1.43866e-52 1.43828e-52 1.43235e-52 1.42112e-52 1.40543e-52 1.38651e-52 1.36586e-52 1.34486e-52 1.32457e-52 1.30552e-52 1.28755e-52 1.2699e-52 1.2513e-52 1.23021e-52 1.20511e-52 1.17467e-52 1.13801e-52 1.09477e-52 1.04512e-52 9.89653e-53 9.29254e-53 8.6496e-53 7.97815e-53 7.28804e-53 6.58829e-53 5.88747e-53 5.19419e-53 4.51757e-53 3.86736e-53 3.25362e-53 2.68602e-53 2.17289e-53 1.72035e-53 1.33163e-53 1.00682e-53 7.4303e-54 5.34937e-54 3.75539e-54 2.56999e-54 1.71414e-54 1.11418e-54 7.0574e-55 4.35645e-55 2.62095e-55 1.53703e-55 8.7878e-56 4.89938e-56 2.6642e-56 1.4134e-56 7.31739e-57 3.69793e-57 1.82474e-57 8.79452e-58 4.14119e-58 1.90579e-58 8.57422e-59 3.77242e-59 1.62363e-59 6.838e-60 2.81891e-60 1.13782e-60 4.49822e-61 1.74225e-61 6.61317e-62 2.46074e-62 8.97849e-63 3.21324e-63 1.12825e-63 3.88784e-64 1.31512e-64 4.36812e-65 1.42496e-65 4.56665e-66 1.4381e-66 4.45125e-67 1.35449e-67 4.05296e-68 1.1928e-68 3.45342e-69 9.83505e-70 2.74412e-70 7.06072e-71 0 
0 7.41655e-101 4.77324e-100 2.9709e-99 1.82998e-98 1.11607e-97 6.73904e-97 4.0283e-96 2.38355e-95 1.39593e-94 8.09099e-94 4.64082e-93 2.6339e-92 1.47902e-91 8.21623e-91 4.51493e-90 2.45393e-89 1.31905e-88 7.01131e-88 3.68492e-87 1.91468e-86 9.83461e-86 4.99293e-85 2.50519e-84 1.24211e-83 6.08492e-83 2.94492e-82 1.40786e-81 6.64738e-81 3.0995e-80 1.42699e-79 6.48598e-79 2.91001e-78 1.28858e-77 5.63073e-77 2.42763e-76 1.03252e-75 4.33156e-75 1.79203e-74 7.31022e-74 2.93985e-73 1.16534e-72 4.55233e-72 1.75223e-71 6.64421e-71 2.48145e-70 9.12629e-70 3.30462e-69 1.17788e-68 4.13177e-68 1.42606e-67 4.84188e-67 1.61682e-66 5.30869e-66 1.71351e-65 5.43569e-65 1.6943e-64 5.18776e-64 1.55998e-63 4.60564e-63 1.33469e-62 3.79556e-62 1.0589e-61 2.89729e-61 7.77266e-61 2.0439e-60 5.26664e-60 1.32942e-59 3.28637e-59 7.95353e-59 1.88391e-58 4.36595e-58 9.89652e-58 2.19347e-57 4.75217e-57 1.00606e-56 2.0806e-56 4.202e-56 8.28496e-56 1.59427e-55 2.99326e-55 5.48173e-55 9.7896e-55 1.70443e-54 2.89243e-54 4.78331e-54 7.70729e-54 1.20983e-53 1.84994e-53 2.7554e-53 3.99772e-53 5.65041e-53 7.78142e-53 1.04439e-52 1.36662e-52 1.7443e-52 2.17296e-52 2.64403e-52 3.14531e-52 3.66194e-52 4.17784e-52 4.67736e-52 5.14679e-52 5.57563e-52 5.95727e-52 6.28906e-52 6.57184e-52 6.80913e-52 7.00592e-52 7.16762e-52 7.299e-52 7.40339e-52 7.4822e-52 7.53475e-52 7.55852e-52 7.54969e-52 7.50405e-52 7.41817e-52 7.29063e-52 7.12313e-52 6.92129e-52 6.69489e-52 6.45745e-52 6.2251e-52 6.01492e-52 5.84292e-52 5.72206e-52 5.66064e-52 5.66135e-52 5.72109e-52 5.8317e-52 5.98121e-52 6.15563e-52 6.34065e-52 6.52321e-52 6.6926e-52 6.841e-52 6.96359e-52 7.05824e-52 7.12502e-52 7.16566e-52 7.18303e-52 7.18072e-52 7.16277e-52 7.1334e-52 7.09682e-52 7.05701e-52 7.01754e-52 6.98149e-52 6.95133e-52 6.929e-52 6.91598e-52 6.91348e-52 6.92248e-52 6.94384e-52 6.97816e-52 7.02567e-52 7.08601e-52 7.15809e-52 7.24006e-52 7.32952e-52 7.42383e-52 7.52056e-52 7.61793e-52 7.71504e-52 7.81181e-52 7.90862e-52 8.00564e-52 8.1021e-52 8.19568e-52 8.28219e-52 8.35583e-52 8.40996e-52 8.43827e-52 8.43606e-52 8.40142e-52 8.33579e-52 8.24397e-52 8.13334e-52 8.01251e-52 7.88967e-52 7.77104e-52 7.6596e-52 7.55453e-52 7.45131e-52 7.34255e-52 7.21929e-52 7.07247e-52 6.89444e-52 6.68001e-52 6.42708e-52 6.13654e-52 5.81188e-52 5.45828e-52 5.08174e-52 4.68835e-52 4.28384e-52 3.87346e-52 3.46224e-52 3.05521e-52 2.65776e-52 2.27564e-52 1.91479e-52 1.58095e-52 1.27906e-52 1.01275e-52 7.83952e-53 5.92744e-53 4.37445e-53 3.14928e-53 2.21078e-53 1.51285e-53 1.00898e-53 6.55769e-54 4.15333e-54 2.56351e-54 1.54208e-54 9.04212e-55 5.16898e-55 2.88137e-55 1.56659e-55 8.30966e-56 4.30129e-56 2.17333e-56 1.07224e-56 5.16683e-57 2.43253e-57 1.11925e-57 5.03464e-58 2.2147e-58 9.53023e-59 4.01299e-59 1.65403e-59 6.67513e-60 2.63847e-60 1.02176e-60 3.87772e-61 1.44266e-61 5.263e-62 1.88325e-62 6.61161e-63 2.27797e-63 7.70456e-64 2.5587e-64 8.34588e-65 2.67434e-65 8.42092e-66 2.60618e-66 7.92966e-67 2.37252e-67 6.98178e-68 2.02121e-68 5.75578e-69 1.60584e-69 4.13162e-70 0 