# vtk DataFile Version 3.0
Gray-Scott Simulation Output
ASCII
DATASET STRUCTURED_POINTS
DIMENSIONS 256 256 1
SPACING 1.0 1.0 1.0
ORIGIN 0 0 0
POINT_DATA 65536
SCALARS u double
LOOKUP_TABLE default
0 0 0 0 0 0 0 0 0 0 0 0 0 0 0 0 0 0 0 0 0 0 0 0 0 0 0 0 0 0 0 0 0 0 0 0 0 0 0 0 0 0 0 0 0 0 0 0 0 0 0 0 0 0 0 0 0 0 0 0 0 0 0 0 0 0 0 0 0 0 0 0 0 0 0 0 0 0 0 0 0 0 0 0 0 0 0 0 0 0 0 0 0 0 0 0 0 0 0 0 0 0 0 0 0 0 0 0 0 0 0 0 0 0 0 0 0 0 0 0 0 0 0 0 0 0 0 0 0 0 0 0 0 0 0 0 0 0 0 0 0 0 0 0 0 0 0 0 0 0 0 0 0 0 0 0 0 0 0 0 0 0 0 0 0 0 0 0 0 0 0 0 0 0 0 0 0 0 0 0 0 0 0 0 0 0 0 0 0 0 0 0 0 0 0 0 0 0 0 0 0 0 0 0 0 0 0 0 0 0 0 0 0 0 0 0 0 0 0 0 0 0 0 0 0 0 0 0 0 0 0 0 0 0 0 0 0 0 0 0 0 0 0 0 0 0 0 0 0 0 0 0 0 0 0 0 
0 1.94791e-111 1.35109e-110 9.092e-110 6.05518e-109 3.99235e-108 2.60573e-107 1.68341e-106 1.07638e-105 6.81109e-105 4.26483e-104 2.64226e-103 1.61955e-102 9.82009e-102 5.88965e-101 3.49359e-100 2.04934e-99 1.18868e-98 6.81682e-98 3.86463e-97 2.16568e-96 1.19947e-95 6.56501e-95 3.55043e-94 1.89701e-93 1.00126e-92 5.21975e-92 2.68734e-91 1.36616e-90 6.85692e-90 3.39733e-89 1.66137e-88 8.01764e-88 3.81779e-87 1.79346e-86 8.31036e-86 3.7977e-85 1.71128e-84 7.60232e-84 3.32904e-83 1.43668e-82 6.10931e-82 2.55934e-81 1.05606e-80 4.29123e-80 1.71682e-79 6.76118e-79 2.62051e-78 9.99355e-78 3.7491e-77 1.38327e-76 5.01836e-76 1.78972e-75 6.27291e-75 2.16027e-74 7.30786e-74 2.42773e-73 7.91814e-73 2.53477e-72 7.96208e-72 2.45336e-71 7.41334e-71 2.19613e-70 6.37613e-70 1.81376e-69 5.05341e-69 1.37858e-68 3.68112e-68 9.61795e-68 2.45805e-67 6.14265e-67 1.50046e-66 3.58133e-66 8.34951e-66 1.90072e-65 4.22335e-65 9.1564e-65 1.93626e-64 3.99227e-64 8.02306e-64 1.571e-63 2.99628e-63 5.5644e-63 1.0059e-62 1.76955e-62 3.02856e-62 5.04163e-62 8.1618e-62 1.28475e-61 1.96618e-61 2.92545e-61 4.23198e-61 5.95294e-61 8.14437e-61 1.08411e-60 1.40472e-60 1.77289e-60 2.18122e-60 2.61861e-60 3.07123e-60 3.52391e-60 3.96184e-60 4.37216e-60 4.7452e-60 5.07513e-60 5.36004e-60 5.60135e-60 5.80294e-60 5.97001e-60 6.10796e-60 6.22145e-60 6.31363e-60 6.38568e-60 6.43661e-60 6.46348e-60 6.46185e-60 6.42668e-60 6.35354e-60 6.23982e-60 6.08611e-60 5.89702e-60 5.68167e-60 5.45323e-60 5.22791e-60 5.0231e-60 4.85526e-60 4.73777e-60 4.67912e-60 4.68188e-60 4.74261e-60 4.85257e-60 4.99929e-60 5.1684e-60 5.34557e-60 5.51805e-60 5.6758e-60 5.81187e-60 5.92235e-60 6.00592e-60 6.06322e-60 6.09625e-60 6.1079e-60 6.10158e-60 6.08105e-60 6.05023e-60 6.01308e-60 5.97335e-60 5.93444e-60 5.89921e-60 5.86989e-60 5.84813e-60 5.83513e-60 5.83184e-60 5.83913e-60 5.85783e-60 5.88869e-60 5.93216e-60 5.98809e-60 6.05553e-60 6.13261e-60 6.21671e-60 6.30486e-60 6.3943e-60 6.48305e-60 6.57029e-60 6.65637e-60 6.74243e-60 6.82959e-60 6.91802e-60 7.00607e-60 7.08981e-60 7.16319e-60 7.21887e-60 7.24961e-60 7.24983e-60 7.217e-60 7.15245e-60 7.06141e-60 6.95213e-60 6.8343e-60 6.71723e-60 6.60791e-60 6.50974e-60 6.42181e-60 6.33907e-60 6.25336e-60 6.15481e-60 6.03366e-60 5.88183e-60 5.69418e-60 5.46906e-60 5.20822e-60 4.91613e-60 4.59895e-60 4.26336e-60 3.91569e-60 3.56142e-60 3.20513e-60 2.85079e-60 2.50226e-60 2.16371e-60 1.83977e-60 1.5354e-60 1.25549e-60 1.00426e-60 7.84721e-61 5.98292e-61 4.44657e-61 3.21903e-61 2.26866e-61 1.55589e-61 1.03811e-61 6.7374e-62 4.25314e-62 2.61161e-62 1.56003e-62 9.06667e-63 5.12796e-63 2.82309e-63 1.51324e-63 7.89979e-64 4.01779e-64 1.99142e-64 9.62249e-65 4.53432e-65 2.08443e-65 9.35119e-66 4.09547e-66 1.75167e-66 7.31928e-67 2.98883e-67 1.19317e-67 4.65824e-68 1.77913e-68 6.64977e-69 2.4331e-69 8.71784e-70 3.0598e-70 1.05232e-70 3.54736e-71 1.17246e-71 3.80062e-72 1.20864e-72 3.77183e-73 1.15541e-73 3.47512e-74 1.02652e-74 2.97878e-75 8.49367e-76 2.38037e-76 6.5583e-77 1.77677e-77 4.73341e-78 1.23617e-78 2.99846e-79 0 
0 1.34945e-110 9.35836e-110 6.2965e-109 4.19269e-108 2.7639e-107 1.80364e-106 1.16503e-105 7.44806e-105 4.71221e-104 2.95013e-103 1.82746e-102 1.11995e-101 6.78974e-101 4.07157e-100 2.41479e-99 1.41631e-98 8.21391e-98 4.70982e-97 2.66975e-96 1.49589e-95 8.28389e-95 4.53341e-94 2.45141e-93 1.30964e-92 6.91153e-92 3.60269e-91 1.85459e-90 9.42715e-90 4.73107e-89 2.34381e-88 1.14606e-87 5.53023e-87 2.6331e-86 1.23682e-85 5.73055e-85 2.61855e-84 1.17985e-83 5.24104e-83 2.29487e-82 9.90308e-82 4.21088e-81 1.76394e-80 7.27808e-80 2.95725e-79 1.18306e-78 4.65895e-78 1.80565e-77 6.88577e-77 2.58313e-76 9.53049e-76 3.45748e-75 1.23303e-74 4.32169e-74 1.4883e-73 5.03465e-73 1.67255e-72 5.45513e-72 1.74633e-71 5.48554e-71 1.69029e-70 5.1077e-70 1.51315e-69 4.39335e-69 1.24978e-68 3.48222e-68 9.50001e-68 2.53684e-67 6.62854e-67 1.69415e-66 4.23391e-66 1.03428e-65 2.4688e-65 5.75614e-65 1.31044e-64 2.91198e-64 6.31376e-64 1.33524e-63 2.75326e-63 5.5335e-63 1.0836e-62 2.06683e-62 3.8386e-62 6.93966e-62 1.22089e-61 2.08967e-61 3.47887e-61 5.6322e-61 8.86609e-61 1.35694e-60 2.01905e-60 2.92087e-60 4.10877e-60 5.62145e-60 7.48292e-60 9.69597e-60 1.22372e-59 1.50556e-59 1.80743e-59 2.11979e-59 2.43216e-59 2.73431e-59 3.01738e-59 3.27467e-59 3.50218e-59 3.69858e-59 3.86488e-59 4.00376e-59 4.11882e-59 4.21379e-59 4.29189e-59 4.35531e-59 4.40486e-59 4.43988e-59 4.45834e-59 4.45719e-59 4.43297e-59 4.3826e-59 4.30431e-59 4.19849e-59 4.06832e-59 3.92008e-59 3.76283e-59 3.60774e-59 3.46677e-59 3.35127e-59 3.27044e-59 3.23013e-59 3.2321e-59 3.27398e-59 3.34976e-59 3.45083e-59 3.5673e-59 3.68931e-59 3.80807e-59 3.91668e-59 4.01035e-59 4.0864e-59 4.14391e-59 4.18333e-59 4.20605e-59 4.21405e-59 4.20969e-59 4.19556e-59 4.17435e-59 4.14879e-59 4.12147e-59 4.09472e-59 4.0705e-59 4.05034e-59 4.03538e-59 4.02645e-59 4.02419e-59 4.0292e-59 4.04204e-59 4.06325e-59 4.09312e-59 4.13157e-59 4.17792e-59 4.23091e-59 4.28872e-59 4.34932e-59 4.41081e-59 4.47183e-59 4.53181e-59 4.59101e-59 4.65019e-59 4.71014e-59 4.77097e-59 4.83155e-59 4.88916e-59 4.93965e-59 4.97797e-59 4.99913e-59 4.9993e-59 4.97672e-59 4.93232e-59 4.8697e-59 4.79452e-59 4.71347e-59 4.63292e-59 4.55771e-59 4.49016e-59 4.42965e-59 4.37271e-59 4.31371e-59 4.24588e-59 4.16248e-59 4.05797e-59 3.92879e-59 3.77381e-59 3.59422e-59 3.3931e-59 3.17465e-59 2.94346e-59 2.70389e-59 2.45968e-59 2.21398e-59 1.96954e-59 1.72901e-59 1.49527e-59 1.27155e-59 1.06129e-59 8.67884e-60 6.94257e-60 5.42512e-60 4.13637e-60 3.07424e-60 2.22556e-60 1.56848e-60 1.07568e-60 7.17685e-61 4.65768e-61 2.94015e-61 1.80529e-61 1.07832e-61 6.26666e-62 3.54409e-62 1.951e-62 1.0457e-62 5.45864e-63 2.77603e-63 1.37583e-63 6.64749e-64 3.13219e-64 1.43976e-64 6.45857e-65 2.8284e-65 1.20965e-65 5.05407e-66 2.06369e-66 8.23788e-67 3.21594e-67 1.22819e-67 4.59028e-68 1.67946e-68 6.01721e-69 2.11183e-69 7.26263e-70 2.44813e-70 8.0912e-71 2.62274e-71 8.3404e-72 2.60274e-72 7.97276e-73 2.39793e-73 7.0832e-74 2.05541e-74 5.8608e-75 1.64251e-75 4.52542e-76 1.22604e-76 3.2663e-77 8.53041e-78 2.0692e-78 0 
0 9.06922e-110 6.28838e-109 4.2302e-108 2.8163e-107 1.85623e-106 1.21111e-105 7.82166e-105 4.99956e-104 3.16258e-103 1.97964e-102 1.22609e-101 7.51288e-101 4.55399e-100 2.73045e-99 1.61915e-98 9.49512e-98 5.5059e-97 3.1566e-96 1.78906e-95 1.00229e-94 5.5497e-94 3.03671e-93 1.64187e-92 8.77037e-92 4.62794e-91 2.41206e-90 1.24153e-89 6.31017e-89 3.16645e-88 1.56852e-87 7.6688e-87 3.70017e-86 1.76158e-85 8.27379e-85 3.83314e-84 1.75138e-83 7.89063e-83 3.50486e-82 1.53455e-81 6.62159e-81 2.81538e-80 1.17929e-79 4.86554e-79 1.97688e-78 7.90826e-78 3.11417e-77 1.2069e-76 4.60232e-76 1.72647e-75 6.36969e-75 2.31076e-74 8.2407e-74 2.88829e-73 9.9466e-73 3.36477e-72 1.11781e-71 3.64586e-71 1.16715e-70 3.66633e-70 1.12976e-69 3.414e-69 1.01143e-68 2.93675e-68 8.35457e-68 2.32793e-67 6.35127e-67 1.69611e-66 4.43207e-66 1.13284e-65 2.83132e-65 6.91698e-65 1.65119e-64 3.85015e-64 8.76594e-64 1.94807e-63 4.22416e-63 8.93404e-63 1.84235e-62 3.70307e-62 7.25215e-62 1.38338e-61 2.56947e-61 4.64561e-61 8.17363e-61 1.39909e-60 2.32936e-60 3.77142e-60 5.93723e-60 9.08728e-60 1.3522e-59 1.95625e-59 2.75194e-59 3.76518e-59 5.01206e-59 6.49441e-59 8.19656e-59 1.00842e-58 1.2106e-58 1.41977e-58 1.62894e-58 1.83123e-58 2.02071e-58 2.1929e-58 2.34513e-58 2.4765e-58 2.5877e-58 2.68052e-58 2.7574e-58 2.82082e-58 2.87297e-58 2.9153e-58 2.94836e-58 2.97172e-58 2.98403e-58 2.98324e-58 2.96704e-58 2.93339e-58 2.8811e-58 2.81042e-58 2.72349e-58 2.62447e-58 2.51946e-58 2.41588e-58 2.32175e-58 2.24463e-58 2.19068e-58 2.1638e-58 2.16517e-58 2.19319e-58 2.24386e-58 2.31141e-58 2.38925e-58 2.47076e-58 2.55011e-58 2.62266e-58 2.68522e-58 2.736e-58 2.7744e-58 2.80071e-58 2.81587e-58 2.82121e-58 2.81829e-58 2.80885e-58 2.79469e-58 2.77763e-58 2.7594e-58 2.74155e-58 2.7254e-58 2.71196e-58 2.70198e-58 2.69603e-58 2.69452e-58 2.69786e-58 2.70642e-58 2.72056e-58 2.74047e-58 2.76611e-58 2.79702e-58 2.83235e-58 2.8709e-58 2.91132e-58 2.95234e-58 2.99304e-58 3.03305e-58 3.07254e-58 3.11203e-58 3.15203e-58 3.19263e-58 3.23306e-58 3.27152e-58 3.30522e-58 3.33081e-58 3.34495e-58 3.34507e-58 3.33e-58 3.30038e-58 3.25859e-58 3.20841e-58 3.15431e-58 3.10055e-58 3.05034e-58 3.00525e-58 2.96485e-58 2.92683e-58 2.88744e-58 2.84214e-58 2.78644e-58 2.71665e-58 2.63037e-58 2.52686e-58 2.4069e-58 2.27253e-58 2.12656e-58 1.97204e-58 1.81186e-58 1.64852e-58 1.48412e-58 1.32049e-58 1.15941e-58 1.00282e-58 8.52883e-59 7.11927e-59 5.82234e-59 4.65784e-59 3.63993e-59 2.77535e-59 2.06273e-59 1.49329e-59 1.0524e-59 7.2173e-60 4.81518e-60 3.12486e-60 1.97246e-60 1.21105e-60 7.23328e-61 4.20336e-61 2.37703e-61 1.30844e-61 7.01243e-62 3.66024e-62 1.86128e-62 9.22395e-63 4.45626e-63 2.09954e-63 9.65e-64 4.32848e-64 1.89541e-64 8.10556e-65 3.38634e-65 1.3826e-65 5.51868e-66 2.15424e-66 8.22664e-67 3.07444e-67 1.12478e-67 4.02965e-68 1.41418e-68 4.86316e-69 1.63922e-69 5.41748e-70 1.75599e-70 5.58392e-71 1.74249e-71 5.3375e-72 1.6053e-72 4.7418e-73 1.37597e-73 3.92342e-74 1.09955e-74 3.02949e-75 8.20767e-76 2.18664e-76 5.71082e-77 1.38529e-77 0 
0 6.03203e-109 4.18175e-108 2.81258e-107 1.87217e-106 1.23374e-105 8.04829e-105 5.1969e-104 3.32128e-103 2.10061e-102 1.31468e-101 8.14116e-101 4.98772e-100 3.02288e-99 1.81216e-98 1.07444e-97 6.29991e-97 3.65258e-96 2.09377e-95 1.18652e-94 6.64636e-94 3.67962e-93 2.01317e-92 1.08833e-91 5.81281e-91 3.06693e-90 1.59828e-89 8.22573e-89 4.18031e-88 2.09746e-87 1.03888e-86 5.07879e-86 2.45026e-85 1.16642e-84 5.47794e-84 2.53764e-83 1.15937e-82 5.223e-82 2.31978e-81 1.01561e-80 4.3821e-80 1.86308e-79 7.80353e-79 3.21943e-78 1.308e-77 5.23229e-77 2.06033e-76 7.98462e-76 3.04472e-75 1.14214e-74 4.21378e-74 1.52863e-73 5.45142e-73 1.91067e-72 6.57993e-72 2.2259e-71 7.3948e-71 2.41193e-70 7.72154e-70 2.4256e-69 7.47462e-69 2.25883e-68 6.69229e-68 1.94325e-67 5.52852e-67 1.54056e-66 4.20337e-66 1.12259e-65 2.93362e-65 7.4989e-65 1.87436e-64 4.57947e-64 1.09328e-63 2.54947e-63 5.8051e-63 1.2902e-62 2.79789e-62 5.91805e-62 1.22052e-61 2.45343e-61 4.80527e-61 9.16707e-61 1.70283e-60 3.079e-60 5.41773e-60 9.27433e-60 1.54421e-59 2.50037e-59 3.9365e-59 6.0254e-59 8.96633e-59 1.29723e-58 1.82493e-58 2.49692e-58 3.32387e-58 4.30697e-58 5.43581e-58 6.6876e-58 8.02824e-58 9.41518e-58 1.08019e-57 1.21428e-57 1.33986e-57 1.45395e-57 1.55479e-57 1.64178e-57 1.71539e-57 1.77682e-57 1.82767e-57 1.8696e-57 1.90407e-57 1.93203e-57 1.95388e-57 1.9693e-57 1.97742e-57 1.97689e-57 1.96617e-57 1.94391e-57 1.90933e-57 1.86259e-57 1.80511e-57 1.73964e-57 1.6702e-57 1.60172e-57 1.53949e-57 1.48852e-57 1.45287e-57 1.43512e-57 1.43606e-57 1.45463e-57 1.48816e-57 1.53286e-57 1.58436e-57 1.63828e-57 1.69076e-57 1.73874e-57 1.78011e-57 1.81368e-57 1.83906e-57 1.85645e-57 1.86647e-57 1.86998e-57 1.86805e-57 1.86181e-57 1.85245e-57 1.84118e-57 1.82914e-57 1.81735e-57 1.80668e-57 1.79781e-57 1.79122e-57 1.78729e-57 1.7863e-57 1.7885e-57 1.79415e-57 1.80348e-57 1.81662e-57 1.83354e-57 1.85395e-57 1.87727e-57 1.90273e-57 1.92942e-57 1.9565e-57 1.98338e-57 2.0098e-57 2.03588e-57 2.06196e-57 2.08839e-57 2.11521e-57 2.14193e-57 2.16735e-57 2.18963e-57 2.20654e-57 2.21589e-57 2.21598e-57 2.20603e-57 2.18646e-57 2.15885e-57 2.12569e-57 2.08994e-57 2.05441e-57 2.02124e-57 1.99144e-57 1.96473e-57 1.9396e-57 1.91356e-57 1.88361e-57 1.84679e-57 1.80064e-57 1.7436e-57 1.67515e-57 1.59582e-57 1.50695e-57 1.41038e-57 1.30813e-57 1.2021e-57 1.09394e-57 9.85033e-58 8.76584e-58 7.6978e-58 6.65912e-58 5.66422e-58 4.7286e-58 3.86752e-58 3.0942e-58 2.41812e-58 1.8438e-58 1.3704e-58 9.92086e-59 6.99165e-59 4.79472e-59 3.19879e-59 2.07579e-59 1.31021e-59 8.0439e-60 4.80408e-60 2.79151e-60 1.57849e-60 8.68811e-61 4.6559e-61 2.43e-61 1.23557e-61 6.12255e-62 2.95764e-62 1.39334e-62 6.4035e-63 2.872e-63 1.25751e-63 5.37713e-64 2.24625e-64 9.17037e-65 3.66005e-65 1.4286e-65 5.45511e-66 2.03851e-66 7.45732e-67 2.67149e-67 9.37484e-68 3.22367e-68 1.08654e-68 3.59073e-69 1.16383e-69 3.70073e-70 1.15479e-70 3.53717e-71 1.06381e-71 3.14225e-72 9.118e-73 2.59986e-73 7.28616e-74 2.00748e-74 5.4388e-75 1.44899e-75 3.78435e-76 9.17994e-77 0 
0 3.97173e-108 2.75296e-107 1.85128e-106 1.23208e-105 8.11788e-105 5.2948e-104 3.41836e-103 2.18428e-102 1.38126e-101 8.64335e-101 5.35157e-100 3.27816e-99 1.98647e-98 1.19068e-97 7.05858e-97 4.13814e-96 2.39888e-95 1.37493e-94 7.7905e-94 4.36331e-93 2.41535e-92 1.3213e-91 7.14212e-91 3.81418e-90 2.01218e-89 1.0485e-88 5.39562e-88 2.74176e-87 1.37553e-86 6.81237e-86 3.33005e-85 1.60644e-84 7.64658e-84 3.59082e-83 1.6633e-82 7.59855e-82 3.42292e-81 1.52018e-80 6.65499e-80 2.87129e-79 1.22068e-78 5.11259e-78 2.10916e-77 8.56883e-77 3.42759e-76 1.34965e-75 5.23031e-75 1.99439e-74 7.48129e-74 2.7601e-73 1.00128e-72 3.57076e-72 1.25152e-71 4.31002e-71 1.45805e-70 4.84396e-70 1.57998e-69 5.05828e-69 1.58904e-68 4.89691e-68 1.47992e-67 4.38481e-67 1.2733e-66 3.62274e-66 1.00957e-65 2.75477e-65 7.3577e-65 1.92291e-64 4.91575e-64 1.2288e-63 3.0025e-63 7.16872e-63 1.67186e-62 3.80717e-62 8.46236e-62 1.83531e-61 3.88241e-61 8.00776e-61 1.60985e-60 3.15335e-60 6.01629e-60 1.11767e-59 2.02111e-59 3.55661e-59 6.0889e-59 1.01391e-58 1.64183e-58 2.58503e-58 3.95701e-58 5.88871e-58 8.52005e-58 1.19864e-57 1.64006e-57 2.18327e-57 2.82904e-57 3.57053e-57 4.39274e-57 5.27323e-57 6.18405e-57 7.09459e-57 7.97495e-57 8.79923e-57 9.54796e-57 1.02095e-56 1.078e-56 1.12626e-56 1.16652e-56 1.19983e-56 1.22728e-56 1.24984e-56 1.26814e-56 1.28243e-56 1.29252e-56 1.29782e-56 1.29746e-56 1.29044e-56 1.27586e-56 1.25321e-56 1.2226e-56 1.18496e-56 1.14209e-56 1.09662e-56 1.05177e-56 1.01103e-56 9.77657e-57 9.54325e-57 9.42722e-57 9.4336e-57 9.55543e-57 9.77529e-57 1.00683e-56 1.04057e-56 1.07589e-56 1.11027e-56 1.14169e-56 1.16878e-56 1.19076e-56 1.20738e-56 1.21876e-56 1.22531e-56 1.22761e-56 1.22634e-56 1.22225e-56 1.21613e-56 1.20875e-56 1.20087e-56 1.19316e-56 1.18619e-56 1.18039e-56 1.17608e-56 1.17351e-56 1.17286e-56 1.1743e-56 1.17799e-56 1.18409e-56 1.19268e-56 1.20374e-56 1.21708e-56 1.23233e-56 1.24898e-56 1.26643e-56 1.28414e-56 1.30172e-56 1.319e-56 1.33606e-56 1.35312e-56 1.37041e-56 1.38796e-56 1.40545e-56 1.42209e-56 1.43667e-56 1.44774e-56 1.45387e-56 1.45393e-56 1.44742e-56 1.43462e-56 1.41655e-56 1.39485e-56 1.37146e-56 1.3482e-56 1.32649e-56 1.30698e-56 1.28951e-56 1.27305e-56 1.256e-56 1.2364e-56 1.21229e-56 1.18207e-56 1.14472e-56 1.0999e-56 1.04794e-56 9.89727e-57 9.26458e-57 8.59448e-57 7.89939e-57 7.19005e-57 6.47548e-57 5.76361e-57 5.06223e-57 4.37984e-57 3.72597e-57 3.11085e-57 2.54459e-57 2.03593e-57 1.59116e-57 1.21329e-57 9.01781e-58 6.52835e-58 4.60074e-58 3.155e-58 2.10477e-58 1.36579e-58 8.6201e-59 5.29189e-59 3.16026e-59 1.83619e-59 1.03821e-59 5.71382e-60 3.06171e-60 1.59781e-60 8.1235e-61 4.02497e-61 1.94415e-61 9.1579e-62 4.20836e-62 1.88727e-62 8.26258e-63 3.53274e-63 1.47562e-63 6.02368e-64 2.40393e-64 9.3822e-65 3.58228e-65 1.33854e-65 4.89628e-66 1.75389e-66 6.15435e-67 2.11612e-67 7.13194e-68 2.35678e-68 7.63836e-69 2.42872e-69 7.57836e-70 2.32119e-70 6.98079e-71 2.06191e-71 5.98298e-72 1.70593e-72 4.78083e-73 1.3172e-73 3.56865e-74 9.50749e-75 2.48311e-75 6.0235e-76 0 
0 2.5887e-107 1.79403e-106 1.20622e-105 8.02637e-105 5.2875e-104 3.44814e-103 2.22578e-102 1.42201e-101 8.99088e-101 5.62522e-100 3.48234e-99 2.13282e-98 1.29224e-97 7.74444e-97 4.5904e-96 2.69077e-95 1.55963e-94 8.93782e-94 5.06361e-93 2.83566e-92 1.56951e-91 8.58482e-91 4.63986e-90 2.47758e-89 1.30691e-88 6.80921e-88 3.50368e-87 1.78019e-86 8.93026e-86 4.42233e-85 2.16155e-84 1.04265e-83 4.96256e-83 2.33022e-82 1.0793e-81 4.93027e-81 2.22079e-80 9.86229e-80 4.31723e-79 1.86256e-78 7.91799e-78 3.31616e-77 1.368e-76 5.55755e-76 2.22299e-75 8.75306e-75 3.39201e-74 1.29341e-73 4.85173e-73 1.78996e-72 6.49341e-72 2.3157e-71 8.11645e-71 2.79521e-70 9.45619e-70 3.14165e-69 1.02476e-68 3.2809e-68 1.03073e-67 3.17653e-67 9.60047e-67 2.84467e-66 8.26112e-66 2.35059e-65 6.55103e-65 1.7877e-64 4.77514e-64 1.24808e-63 3.19089e-63 7.97712e-63 1.94936e-62 4.65472e-62 1.08567e-61 2.47256e-61 5.49645e-61 1.1922e-60 2.52225e-60 5.2029e-60 1.04608e-59 2.04928e-59 3.91025e-59 7.26495e-59 1.31388e-58 2.3123e-58 3.95901e-58 6.593e-58 1.0677e-57 1.68119e-57 2.57365e-57 3.83026e-57 5.54207e-57 7.79716e-57 1.0669e-56 1.4203e-56 1.84042e-56 2.32279e-56 2.85764e-56 3.43037e-56 4.02276e-56 4.61489e-56 5.1873e-56 5.72313e-56 6.20973e-56 6.63953e-56 7.0101e-56 7.32341e-56 7.58464e-56 7.8007e-56 7.97874e-56 8.12495e-56 8.24352e-56 8.33606e-56 8.40139e-56 8.43571e-56 8.43332e-56 8.38773e-56 8.29316e-56 8.14627e-56 7.94777e-56 7.70363e-56 7.4256e-56 7.13073e-56 6.83994e-56 6.57572e-56 6.35937e-56 6.20816e-56 6.13304e-56 6.13731e-56 6.21648e-56 6.35923e-56 6.54937e-56 6.76832e-56 6.99752e-56 7.22051e-56 7.42432e-56 7.6e-56 7.74254e-56 7.85026e-56 7.92403e-56 7.96647e-56 7.98134e-56 7.97308e-56 7.94656e-56 7.90686e-56 7.85905e-56 7.808e-56 7.75806e-56 7.71288e-56 7.67531e-56 7.64745e-56 7.63081e-56 7.62658e-56 7.63588e-56 7.65978e-56 7.69924e-56 7.75486e-56 7.82646e-56 7.91284e-56 8.0116e-56 8.11939e-56 8.2324e-56 8.34709e-56 8.46093e-56 8.57286e-56 8.68336e-56 8.79389e-56 8.90591e-56 9.01966e-56 9.13298e-56 9.24081e-56 9.33536e-56 9.40717e-56 9.44689e-56 9.44732e-56 9.40518e-56 9.32221e-56 9.20512e-56 9.06451e-56 8.91288e-56 8.76218e-56 8.62143e-56 8.495e-56 8.3817e-56 8.27506e-56 8.16453e-56 8.03741e-56 7.8811e-56 7.68519e-56 7.44299e-56 7.15232e-56 6.81534e-56 6.43771e-56 6.02721e-56 5.59231e-56 5.14104e-56 4.68034e-56 4.21604e-56 3.75327e-56 3.29711e-56 2.8531e-56 2.42749e-56 2.02697e-56 1.65815e-56 1.32678e-56 1.03698e-56 7.90743e-57 5.87731e-57 4.25481e-57 2.99844e-57 2.05615e-57 1.37164e-57 8.90012e-58 5.61693e-58 3.44799e-58 2.05894e-58 1.19619e-58 6.76281e-59 3.72158e-59 1.99398e-59 1.04048e-59 5.2894e-60 2.62046e-60 1.2656e-60 5.96093e-61 2.73893e-61 1.22816e-61 5.37634e-62 2.29845e-62 9.59957e-63 3.91825e-63 1.56353e-63 6.10163e-64 2.32948e-64 8.70343e-65 3.18336e-65 1.14021e-65 4.00064e-66 1.37548e-66 4.63544e-67 1.5317e-67 4.96395e-68 1.57827e-68 4.92442e-69 1.50824e-69 4.53572e-70 1.33966e-70 3.88715e-71 1.10831e-71 3.10597e-72 8.55737e-73 2.3184e-73 6.17659e-74 1.61317e-74 3.91322e-75 0 
0 1.67005e-106 1.15719e-105 7.77908e-105 5.17545e-104 3.40885e-103 2.22265e-102 1.43449e-101 9.16323e-101 5.79269e-100 3.62369e-99 2.24294e-98 1.37352e-97 8.32068e-97 4.98591e-96 2.9549e-95 1.73185e-94 1.00368e-93 5.75106e-93 3.25777e-92 1.82414e-91 1.00952e-90 5.52115e-90 2.98368e-89 1.59304e-88 8.40224e-88 4.37724e-87 2.25208e-86 1.14415e-85 5.73903e-85 2.84175e-84 1.38887e-83 6.69882e-83 3.18809e-82 1.49689e-81 6.93273e-81 3.16667e-80 1.42631e-79 6.33371e-79 2.77244e-78 1.19604e-77 5.08431e-77 2.12929e-76 8.78358e-76 3.56826e-75 1.42725e-74 5.61972e-74 2.17774e-73 8.30386e-73 3.11487e-72 1.14918e-71 4.1689e-71 1.48675e-70 5.2111e-70 1.79469e-69 6.07161e-69 2.01726e-68 6.58029e-68 2.10686e-67 6.61926e-67 2.04006e-66 6.16611e-66 1.82718e-65 5.30664e-65 1.51006e-64 4.20883e-64 1.14864e-63 3.06844e-63 8.02077e-63 2.05083e-62 5.12755e-62 1.25315e-61 2.99263e-61 6.98083e-61 1.59003e-60 3.53503e-60 7.66852e-60 1.62257e-59 3.34744e-59 6.73109e-59 1.31878e-58 2.51666e-58 4.67629e-58 8.45805e-58 1.48869e-57 2.54913e-57 4.2455e-57 6.87595e-57 1.08277e-56 1.65768e-56 2.46721e-56 3.57005e-56 5.02294e-56 6.87319e-56 9.15008e-56 1.18568e-55 1.49645e-55 1.84101e-55 2.20994e-55 2.59149e-55 2.97281e-55 3.34138e-55 3.68632e-55 3.99948e-55 4.276e-55 4.51433e-55 4.71575e-55 4.88361e-55 5.02238e-55 5.13669e-55 5.23051e-55 5.30658e-55 5.36594e-55 5.40783e-55 5.42981e-55 5.42824e-55 5.39894e-55 5.33819e-55 5.24385e-55 5.11638e-55 4.9596e-55 4.78105e-55 4.59169e-55 4.40496e-55 4.23531e-55 4.09642e-55 3.99937e-55 3.9512e-55 3.95405e-55 4.00499e-55 4.09677e-55 4.21897e-55 4.35966e-55 4.50691e-55 4.65015e-55 4.78105e-55 4.89387e-55 4.98539e-55 5.05453e-55 5.10188e-55 5.1291e-55 5.13863e-55 5.13331e-55 5.11628e-55 5.09079e-55 5.06011e-55 5.02736e-55 4.99533e-55 4.96636e-55 4.94227e-55 4.9244e-55 4.91373e-55 4.91102e-55 4.91698e-55 4.93229e-55 4.95758e-55 4.99323e-55 5.03913e-55 5.09451e-55 5.15783e-55 5.22694e-55 5.29941e-55 5.37296e-55 5.44596e-55 5.51775e-55 5.58862e-55 5.65952e-55 5.7314e-55 5.80438e-55 5.87711e-55 5.94633e-55 6.00703e-55 6.05313e-55 6.07865e-55 6.07895e-55 6.05193e-55 5.99869e-55 5.92355e-55 5.83331e-55 5.736e-55 5.63928e-55 5.54895e-55 5.4678e-55 5.39508e-55 5.32662e-55 5.25567e-55 5.17407e-55 5.07372e-55 4.94794e-55 4.79243e-55 4.60578e-55 4.38936e-55 4.1468e-55 3.88306e-55 3.60357e-55 3.31346e-55 3.01716e-55 2.71841e-55 2.4205e-55 2.12671e-55 1.84061e-55 1.56625e-55 1.30799e-55 1.07009e-55 8.56304e-56 6.69301e-56 5.10385e-56 3.79356e-56 2.74629e-56 1.93532e-56 1.32708e-56 8.85245e-57 5.74372e-57 3.62465e-57 2.22484e-57 1.32843e-57 7.71714e-58 4.36254e-58 2.40046e-58 1.286e-58 6.70973e-59 3.41056e-59 1.68945e-59 8.15853e-60 3.84216e-60 1.76518e-60 7.91425e-61 3.4641e-61 1.48076e-61 6.18375e-62 2.52372e-62 1.00695e-62 3.92915e-63 1.49991e-63 5.60341e-64 2.0493e-64 7.33946e-65 2.57495e-65 8.85229e-66 2.98303e-66 9.85615e-67 3.19398e-67 1.01545e-67 3.16815e-68 9.70283e-69 2.91778e-69 8.61754e-70 2.50036e-70 7.12886e-71 1.99776e-71 5.50398e-72 1.49114e-72 3.97259e-73 1.03754e-73 2.51685e-74 0 
0 1.0663e-105 7.38732e-105 4.9652e-104 3.30281e-103 2.17507e-102 1.41797e-101 9.15006e-101 5.84394e-100 3.69378e-99 2.31034e-98 1.4298e-97 8.75448e-97 5.30264e-96 3.17699e-95 1.88259e-94 1.10322e-93 6.39277e-93 3.66257e-92 2.07445e-91 1.16142e-90 6.42674e-90 3.51444e-89 1.89902e-88 1.01381e-87 5.3466e-87 2.78509e-86 1.43278e-85 7.27841e-85 3.65049e-84 1.80743e-83 8.83283e-83 4.25993e-82 2.02723e-81 9.51766e-81 4.40774e-80 2.0132e-79 9.06718e-79 4.02619e-78 1.76229e-77 7.60229e-77 3.23156e-76 1.35332e-75 5.58246e-75 2.26778e-74 9.07062e-74 3.57146e-73 1.38399e-72 5.27725e-72 1.97956e-71 7.30334e-71 2.64949e-70 9.44902e-70 3.312e-69 1.14068e-68 3.85919e-68 1.28225e-67 4.1829e-67 1.33934e-66 4.20817e-66 1.29705e-65 3.92063e-65 1.16187e-64 3.3747e-64 9.60387e-64 2.67704e-63 7.30669e-63 1.95209e-62 5.10322e-62 1.30499e-61 3.26315e-61 7.97592e-61 1.90496e-60 4.44419e-60 1.01239e-59 2.25107e-59 4.88387e-59 1.0335e-58 2.13244e-58 4.2885e-58 8.40324e-58 1.60381e-57 2.98046e-57 5.39143e-57 9.49047e-57 1.62525e-56 2.70709e-56 4.38477e-56 6.9054e-56 1.05727e-55 1.5737e-55 2.27727e-55 3.2042e-55 4.38466e-55 5.83732e-55 7.56419e-55 9.54678e-55 1.17448e-54 1.40981e-54 1.65316e-54 1.89633e-54 2.13132e-54 2.35119e-54 2.55076e-54 2.72691e-54 2.87868e-54 3.00689e-54 3.11369e-54 3.20194e-54 3.27459e-54 3.33421e-54 3.38253e-54 3.42022e-54 3.44681e-54 3.46075e-54 3.45973e-54 3.44108e-54 3.40245e-54 3.34246e-54 3.2614e-54 3.16171e-54 3.04817e-54 2.92777e-54 2.80904e-54 2.70119e-54 2.61289e-54 2.55122e-54 2.52065e-54 2.52251e-54 2.55498e-54 2.6134e-54 2.69117e-54 2.78068e-54 2.87435e-54 2.96546e-54 3.04871e-54 3.12044e-54 3.17862e-54 3.22257e-54 3.25265e-54 3.26995e-54 3.27599e-54 3.2726e-54 3.26176e-54 3.24556e-54 3.22607e-54 3.20526e-54 3.18492e-54 3.16652e-54 3.15123e-54 3.13989e-54 3.13311e-54 3.13139e-54 3.13517e-54 3.14488e-54 3.16093e-54 3.18355e-54 3.21269e-54 3.24784e-54 3.28804e-54 3.33192e-54 3.37793e-54 3.42462e-54 3.47098e-54 3.51657e-54 3.56157e-54 3.60661e-54 3.65227e-54 3.69864e-54 3.74486e-54 3.78885e-54 3.82744e-54 3.85675e-54 3.87298e-54 3.87319e-54 3.85603e-54 3.82221e-54 3.77446e-54 3.71712e-54 3.65528e-54 3.59381e-54 3.53641e-54 3.48484e-54 3.43863e-54 3.39512e-54 3.35003e-54 3.29816e-54 3.23438e-54 3.15442e-54 3.05556e-54 2.93689e-54 2.79927e-54 2.645e-54 2.47723e-54 2.29938e-54 2.11471e-54 1.92602e-54 1.73568e-54 1.54578e-54 1.35841e-54 1.17587e-54 1.00074e-54 8.35824e-55 6.83873e-55 5.47285e-55 4.27789e-55 3.26226e-55 2.42478e-55 1.75537e-55 1.23699e-55 8.48189e-56 5.65767e-56 3.67062e-56 2.31623e-56 1.4216e-56 8.48746e-57 4.93004e-57 2.78668e-57 1.53318e-57 8.21273e-58 4.28449e-58 2.17754e-58 1.07852e-58 5.20762e-59 2.45214e-59 1.12643e-59 5.0497e-60 2.20999e-60 9.44559e-61 3.94402e-61 1.60944e-61 6.42077e-62 2.50511e-62 9.56188e-63 3.57176e-63 1.30613e-63 4.67737e-64 1.64083e-64 5.6404e-65 1.90052e-65 6.27894e-66 2.03459e-66 6.468e-67 2.01785e-67 6.17953e-68 1.85817e-68 5.48774e-69 1.59218e-69 4.53935e-70 1.27205e-70 3.50448e-71 9.49413e-72 2.52932e-72 6.60584e-73 1.60243e-73 0 
0 6.73744e-105 4.66692e-104 3.13623e-103 2.08586e-102 1.37342e-101 8.95214e-101 5.77586e-100 3.68835e-99 2.33094e-98 1.45771e-97 9.02002e-97 5.52203e-96 3.34425e-95 2.00338e-94 1.18698e-93 6.95492e-93 4.02961e-92 2.30837e-91 1.30728e-90 7.31815e-90 4.04905e-89 2.21395e-88 1.19617e-87 6.38519e-87 3.36707e-86 1.75376e-85 9.02126e-85 4.58232e-84 2.29807e-83 1.13772e-82 5.55956e-82 2.68108e-81 1.27579e-80 5.98933e-80 2.77356e-79 1.26673e-78 5.70487e-78 2.53307e-77 1.1087e-76 4.78258e-76 2.0329e-75 8.5132e-75 3.51162e-74 1.42651e-73 5.70567e-73 2.24653e-72 8.70564e-72 3.31953e-71 1.24521e-70 4.59413e-70 1.66668e-69 5.94417e-69 2.08358e-68 7.1763e-68 2.42802e-67 8.06775e-67 2.63198e-66 8.42801e-66 2.64824e-65 8.16307e-65 2.46767e-64 7.31357e-64 2.12444e-63 6.04644e-63 1.6856e-62 4.60115e-62 1.2294e-61 3.21433e-61 8.22064e-61 2.05584e-60 5.02563e-60 1.20047e-59 2.80103e-59 6.38163e-59 1.41917e-58 3.07942e-58 6.51746e-58 1.34494e-57 2.70516e-57 5.30143e-57 1.01195e-56 1.88081e-56 3.40267e-56 5.99041e-56 1.02598e-55 1.70911e-55 2.76858e-55 4.36053e-55 6.67686e-55 9.93895e-55 1.43834e-54 2.0239e-54 2.76963e-54 3.68732e-54 4.77822e-54 6.03061e-54 7.419e-54 8.90532e-54 1.04421e-53 1.19775e-53 1.3461e-53 1.48487e-53 1.61078e-53 1.72188e-53 1.81757e-53 1.89837e-53 1.96564e-53 2.02119e-53 2.06692e-53 2.10442e-53 2.1348e-53 2.15849e-53 2.1752e-53 2.18396e-53 2.1833e-53 2.17155e-53 2.14722e-53 2.10945e-53 2.05842e-53 1.99566e-53 1.92419e-53 1.84839e-53 1.77365e-53 1.70575e-53 1.65018e-53 1.61138e-53 1.59217e-53 1.59338e-53 1.61386e-53 1.65069e-53 1.69969e-53 1.75607e-53 1.81507e-53 1.87244e-53 1.92485e-53 1.97001e-53 2.00663e-53 2.03429e-53 2.05321e-53 2.06409e-53 2.06788e-53 2.06574e-53 2.05892e-53 2.04872e-53 2.03646e-53 2.02337e-53 2.01058e-53 1.99902e-53 1.9894e-53 1.98228e-53 1.97802e-53 1.97693e-53 1.9793e-53 1.9854e-53 1.99548e-53 2.0097e-53 2.02801e-53 2.0501e-53 2.07536e-53 2.10295e-53 2.13187e-53 2.16122e-53 2.19037e-53 2.21902e-53 2.24732e-53 2.27564e-53 2.30436e-53 2.33353e-53 2.36261e-53 2.3903e-53 2.41458e-53 2.43304e-53 2.44326e-53 2.4434e-53 2.43261e-53 2.41133e-53 2.3813e-53 2.34522e-53 2.30631e-53 2.26764e-53 2.23152e-53 2.19908e-53 2.17e-53 2.14263e-53 2.11425e-53 2.08162e-53 2.04148e-53 1.99116e-53 1.92894e-53 1.85424e-53 1.7676e-53 1.67047e-53 1.5648e-53 1.45275e-53 1.33637e-53 1.21739e-53 1.09732e-53 9.7747e-54 8.59154e-54 7.4383e-54 6.33143e-54 5.2887e-54 4.32766e-54 3.46357e-54 2.70746e-54 2.06474e-54 1.5347e-54 1.111e-54 7.8289e-55 5.36797e-55 3.58039e-55 2.32275e-55 1.46558e-55 8.9943e-56 5.36938e-56 3.11853e-56 1.76253e-56 9.69593e-57 5.19313e-57 2.70884e-57 1.37655e-57 6.81703e-58 3.29112e-58 1.54949e-58 7.11681e-59 3.18997e-59 1.39588e-59 5.96524e-60 2.49046e-60 1.01614e-60 4.05331e-61 1.58123e-61 6.0347e-62 2.25394e-62 8.24131e-63 2.95095e-63 1.03509e-63 3.55777e-64 1.19867e-64 3.95978e-65 1.28299e-65 4.07833e-66 1.27224e-66 3.89586e-67 1.1714e-67 3.4593e-68 1.00361e-68 2.86118e-69 8.01745e-70 2.20873e-70 5.98357e-71 1.59404e-71 4.16309e-72 1.00986e-72 0 