# vtk DataFile Version 3.0
Gray-Scott Simulation Output
ASCII
DATASET STRUCTURED_POINTS
DIMENSIONS 256 256 1
SPACING 1.0 1.0 1.0
ORIGIN 0 0 0
POINT_DATA 65536
SCALARS u double
LOOKUP_TABLE default
0 0 0 0 0 0 0 0 0 0 0 0 0 0 0 0 0 0 0 0 0 0 0 0 0 0 0 0 0 0 0 0 0 0 0 0 0 0 0 0 0 0 0 0 0 0 0 0 0 0 0 0 0 0 0 0 0 0 0 0 0 0 0 0 0 0 0 0 0 0 0 0 0 0 0 0 0 0 0 0 0 0 0 0 0 0 0 0 0 0 0 0 0 0 0 0 0 0 0 0 0 0 0 0 0 0 0 0 0 0 0 0 0 0 0 0 0 0 0 0 0 0 0 0 0 0 0 0 0 0 0 0 0 0 0 0 0 0 0 0 0 0 0 0 0 0 0 0 0 0 0 0 0 0 0 0 0 0 0 0 0 0 0 0 0 0 0 0 0 0 0 0 0 0 0 0 0 0 0 0 0 0 0 0 0 0 0 0 0 0 0 0 0 0 0 0 0 0 0 0 0 0 0 0 0 0 0 0 0 0 0 0 0 0 0 0 0 0 0 0 0 0 0 0 0 0 0 0 0 0 0 0 0 0 0 0 0 0 0 0 0 0 0 0 0 0 0 0 0 0 0 0 0 0 0 0 
0 5.58734e-155 7.67127e-154 1.03681e-152 1.3864e-151 1.83399e-150 2.39986e-149 3.10603e-148 3.97568e-147 5.03217e-146 6.29778e-145 7.79221e-144 9.53065e-143 1.15218e-141 1.37659e-140 1.62525e-139 1.89588e-138 2.18484e-137 2.48708e-136 2.79616e-135 3.10439e-134 3.40306e-133 3.68282e-132 3.93408e-131 4.14755e-130 4.31476e-129 4.42864e-128 4.48394e-127 4.47767e-126 4.40933e-125 4.28099e-124 4.0972e-123 3.86475e-122 3.59221e-121 3.28946e-120 2.96702e-119 2.63548e-118 2.30488e-117 1.98423e-116 1.6811e-115 1.40135e-114 1.14908e-113 9.26613e-113 7.34645e-112 5.72499e-111 4.38401e-110 3.29797e-109 2.43655e-108 1.76737e-107 1.25825e-106 8.78944e-106 6.0223e-105 4.04598e-104 2.66435e-103 1.71913e-102 1.08645e-101 6.7224e-101 4.07077e-100 2.41148e-99 1.39686e-98 7.90844e-98 4.3741e-97 2.3623e-96 1.24511e-95 6.40138e-95 3.20845e-94 1.56683e-93 7.45056e-93 3.44769e-92 1.55151e-91 6.78535e-91 2.88185e-90 1.18777e-89 4.74692e-89 1.83808e-88 6.89001e-88 2.49802e-87 8.75169e-87 2.96e-86 9.65512e-86 3.03417e-85 9.17626e-85 2.66777e-84 7.44701e-84 1.99363e-83 5.11216e-83 1.25404e-82 2.93912e-82 6.573e-82 1.40088e-81 2.84182e-81 5.48076e-81 1.00385e-80 1.74457e-80 2.87467e-80 4.48942e-80 6.6449e-80 9.3261e-80 1.24262e-79 1.57504e-79 1.90501e-79 2.20809e-79 2.46637e-79 2.67236e-79 2.82914e-79 2.94686e-79 3.03754e-79 3.11076e-79 3.17208e-79 3.22414e-79 3.269e-79 3.30984e-79 3.35069e-79 3.39455e-79 3.44099e-79 3.48467e-79 3.51538e-79 3.51975e-79 3.48385e-79 3.39636e-79 3.25169e-79 3.05276e-79 2.8126e-79 2.55404e-79 2.3068e-79 2.10221e-79 1.96669e-79 1.91602e-79 1.95198e-79 2.06269e-79 2.22601e-79 2.41512e-79 2.60421e-79 2.77327e-79 2.91067e-79 3.01342e-79 3.08537e-79 3.13394e-79 3.16663e-79 3.18836e-79 3.2005e-79 3.20167e-79 3.18957e-79 3.16313e-79 3.12391e-79 3.07639e-79 3.02697e-79 2.98228e-79 2.94728e-79 2.92412e-79 2.91182e-79 2.90722e-79 2.90652e-79 2.90705e-79 2.90872e-79 2.91451e-79 2.92985e-79 2.96083e-79 3.01185e-79 3.08332e-79 3.17044e-79 3.26351e-79 3.35017e-79 3.41895e-79 3.46328e-79 3.48437e-79 3.49191e-79 3.50191e-79 3.53195e-79 3.59501e-79 3.69375e-79 3.81754e-79 3.94374e-79 4.04341e-79 4.08977e-79 4.06664e-79 3.97366e-79 3.82656e-79 3.65244e-79 3.48191e-79 3.34126e-79 3.24701e-79 3.20398e-79 3.20641e-79 3.24032e-79 3.28621e-79 3.32178e-79 3.32518e-79 3.279e-79 3.17431e-79 3.01309e-79 2.80783e-79 2.57789e-79 2.34386e-79 2.12166e-79 1.91875e-79 1.73345e-79 1.55771e-79 1.38175e-79 1.19892e-79 1.00868e-79 8.16777e-80 6.32993e-80 4.67658e-80 3.28542e-80 2.19159e-80 1.38724e-80 8.332e-81 4.75015e-81 2.57226e-81 1.32418e-81 6.48703e-82 3.02754e-82 1.34768e-82 5.72864e-83 2.32817e-83 9.05727e-84 3.3769e-84 1.20806e-84 4.15144e-85 1.37195e-85 4.36488e-86 1.3383e-86 3.95841e-87 1.13056e-87 3.12085e-88 8.33397e-89 2.15477e-89 5.3986e-90 1.3117e-90 3.09307e-91 7.08379e-92 1.57676e-92 3.41332e-93 7.19092e-94 1.47521e-94 2.94878e-95 5.74645e-96 1.09235e-96 2.02656e-97 3.67122e-98 6.4972e-99 1.12386e-99 1.90092e-100 3.14536e-101 5.09346e-102 8.07548e-103 1.25402e-103 1.90804e-104 2.8456e-105 4.16118e-106 5.96845e-107 8.39946e-108 1.15984e-108 1.54593e-109 0 
0 7.66699e-154 1.0521e-152 1.4212e-151 1.89937e-150 2.51124e-149 3.28431e-148 4.24846e-147 5.43508e-146 6.87573e-145 8.60045e-144 1.06357e-142 1.30016e-141 1.57097e-140 1.87596e-139 2.21365e-138 2.58091e-137 2.97272e-136 3.38219e-135 3.80054e-134 4.21729e-133 4.62065e-132 4.99793e-131 5.33616e-130 5.62282e-129 5.84652e-128 5.99776e-127 6.06956e-126 6.05801e-125 5.96253e-124 5.78606e-123 5.53488e-122 5.21824e-121 4.84784e-120 4.43706e-119 4.00014e-118 3.55141e-117 3.10439e-116 2.6712e-115 2.26201e-114 1.88468e-113 1.54466e-112 1.245e-111 9.86598e-111 7.68475e-110 5.88194e-109 4.42273e-108 3.26599e-107 2.3679e-106 1.68501e-105 1.1765e-104 8.0574e-104 5.41075e-103 3.56146e-102 2.29694e-101 1.45096e-100 8.97381e-100 5.43172e-99 3.21628e-98 1.86224e-97 1.05386e-96 5.82635e-96 3.14528e-95 1.6571e-94 8.51598e-94 4.26656e-93 2.0827e-92 9.89965e-92 4.57917e-91 2.05988e-90 9.00517e-90 3.82319e-89 1.57515e-88 6.29277e-88 2.43577e-87 9.12719e-87 3.30796e-86 1.15853e-85 3.91706e-85 1.27728e-84 4.01261e-84 1.21316e-83 3.52589e-83 9.83955e-83 2.63339e-82 6.75082e-82 1.65558e-81 3.87925e-81 8.67343e-81 1.84813e-80 3.74831e-80 7.22762e-80 1.32357e-79 2.29983e-79 3.78908e-79 5.91675e-79 8.75662e-79 1.22889e-78 1.63729e-78 2.0752e-78 2.5099e-78 2.90919e-78 3.24949e-78 3.52091e-78 3.72749e-78 3.88258e-78 4.00199e-78 4.09839e-78 4.17912e-78 4.24766e-78 4.30677e-78 4.36062e-78 4.41451e-78 4.47236e-78 4.53358e-78 4.59113e-78 4.63159e-78 4.63734e-78 4.59007e-78 4.47487e-78 4.2844e-78 4.0225e-78 3.70635e-78 3.36599e-78 3.04056e-78 2.77129e-78 2.59298e-78 2.52636e-78 2.57379e-78 2.7196e-78 2.93468e-78 3.18368e-78 3.43267e-78 3.65528e-78 3.8362e-78 3.97152e-78 4.06627e-78 4.13022e-78 4.17321e-78 4.20172e-78 4.21758e-78 4.21898e-78 4.20293e-78 4.16804e-78 4.11638e-78 4.05386e-78 3.98891e-78 3.93021e-78 3.8843e-78 3.85394e-78 3.83786e-78 3.83188e-78 3.83098e-78 3.83167e-78 3.83383e-78 3.8414e-78 3.86152e-78 3.90221e-78 3.96925e-78 4.06319e-78 4.17772e-78 4.30008e-78 4.41402e-78 4.50449e-78 4.56284e-78 4.59066e-78 4.60069e-78 4.61396e-78 4.65358e-78 4.73658e-78 4.86645e-78 5.02921e-78 5.19511e-78 5.3261e-78 5.387e-78 5.35655e-78 5.23429e-78 5.0409e-78 4.81197e-78 4.58777e-78 4.40282e-78 4.27884e-78 4.2222e-78 4.2253e-78 4.26979e-78 4.33003e-78 4.37667e-78 4.38098e-78 4.32007e-78 4.18216e-78 3.96986e-78 3.69958e-78 3.39679e-78 3.08855e-78 2.79584e-78 2.52847e-78 2.28429e-78 2.05267e-78 1.82078e-78 1.57988e-78 1.32922e-78 1.07638e-78 8.34236e-79 6.16387e-79 4.33071e-79 2.88918e-79 1.82904e-79 1.09871e-79 6.26477e-80 3.39299e-80 1.747e-80 8.55995e-81 3.99578e-81 1.77905e-81 7.56398e-82 3.07478e-82 1.19647e-82 4.46204e-83 1.59667e-83 5.48842e-84 1.8143e-84 5.77392e-85 1.77086e-85 5.23946e-86 1.49691e-86 4.13352e-87 1.10419e-87 2.85591e-88 7.15775e-89 1.73974e-89 4.10393e-90 9.40235e-91 2.09363e-91 4.53398e-92 9.55555e-93 1.96109e-93 3.92157e-94 7.64529e-95 1.4539e-95 2.69844e-96 4.89041e-97 8.65858e-98 1.49837e-98 2.53547e-99 4.19715e-100 6.79969e-101 1.07854e-101 1.6756e-102 2.55063e-103 3.80567e-104 5.56766e-105 7.98948e-106 1.12489e-106 1.55403e-107 2.07227e-108 0 
0 1.03564e-152 1.42038e-151 1.91765e-150 2.56147e-149 3.38479e-148 4.42439e-147 5.72016e-146 7.31391e-145 9.24761e-144 1.15611e-142 1.42893e-141 1.74587e-140 2.10839e-139 2.51638e-138 2.96779e-137 3.45834e-136 3.98126e-135 4.52727e-134 5.08458e-133 5.6392e-132 6.17533e-131 6.67607e-130 7.12418e-129 7.50301e-128 7.79748e-127 7.99508e-126 8.08664e-125 8.06712e-124 7.93593e-123 7.69715e-122 7.35927e-121 6.93476e-120 6.43928e-119 5.89069e-118 5.30799e-117 4.71019e-116 4.11527e-115 3.53928e-114 2.99564e-113 2.49471e-112 2.04363e-111 1.64638e-110 1.30404e-109 1.01524e-108 7.767e-108 5.83736e-107 4.30858e-106 3.12233e-105 2.22082e-104 1.5499e-103 1.06097e-102 7.12141e-102 4.68531e-101 3.02038e-100 1.90709e-99 1.17896e-98 7.13291e-98 4.22174e-97 2.44334e-96 1.38212e-95 7.63783e-95 4.12142e-94 2.17047e-93 1.11496e-92 5.5837e-92 2.72454e-91 1.29453e-90 5.98557e-90 2.69148e-89 1.17617e-88 4.9916e-88 2.05576e-87 8.20977e-87 3.17663e-86 1.18991e-85 4.31106e-85 1.50932e-84 5.10139e-84 1.66292e-83 5.22244e-83 1.57845e-82 4.58616e-82 1.27946e-81 3.42331e-81 8.77342e-81 2.15105e-80 5.03894e-80 1.12637e-79 2.39952e-79 4.86562e-79 9.38025e-79 1.71748e-78 2.9838e-78 4.91525e-78 7.67436e-78 1.13567e-77 1.59365e-77 2.12314e-77 2.69089e-77 3.25449e-77 3.77222e-77 4.21347e-77 4.56545e-77 4.83334e-77 5.03442e-77 5.18919e-77 5.31409e-77 5.41867e-77 5.50749e-77 5.58414e-77 5.65402e-77 5.72397e-77 5.79906e-77 5.87849e-77 5.95312e-77 6.00557e-77 6.01303e-77 5.95176e-77 5.80248e-77 5.55568e-77 5.21637e-77 4.80678e-77 4.36586e-77 3.94431e-77 3.59554e-77 3.36463e-77 3.27843e-77 3.34e-77 3.52902e-77 3.80776e-77 4.13043e-77 4.45308e-77 4.74156e-77 4.97602e-77 5.15139e-77 5.27419e-77 5.35704e-77 5.41268e-77 5.4495e-77 5.46989e-77 5.47152e-77 5.45056e-77 5.40524e-77 5.33829e-77 5.25735e-77 5.17332e-77 5.09745e-77 5.03818e-77 4.99903e-77 4.97835e-77 4.97069e-77 4.96956e-77 4.97045e-77 4.9732e-77 4.98294e-77 5.0089e-77 5.06149e-77 5.14818e-77 5.2697e-77 5.41785e-77 5.57616e-77 5.7236e-77 5.8407e-77 5.91629e-77 5.95241e-77 5.96553e-77 5.98287e-77 6.03428e-77 6.14179e-77 6.3099e-77 6.52051e-77 6.73512e-77 6.90453e-77 6.98326e-77 6.94382e-77 6.78562e-77 6.5354e-77 6.23921e-77 5.94911e-77 5.70978e-77 5.54929e-77 5.4759e-77 5.47981e-77 5.53724e-77 5.61504e-77 5.67523e-77 5.6806e-77 5.60152e-77 5.42275e-77 5.14762e-77 4.79736e-77 4.40495e-77 4.00542e-77 3.62593e-77 3.27923e-77 2.96254e-77 2.66213e-77 2.36138e-77 2.04896e-77 1.72392e-77 1.39607e-77 1.08207e-77 7.9957e-78 5.61829e-78 3.7486e-78 2.37341e-78 1.4259e-78 8.13164e-79 4.4048e-79 2.26835e-79 1.11166e-79 5.19022e-80 2.31133e-80 9.82924e-81 3.99653e-81 1.55552e-81 5.80253e-82 2.07689e-82 7.14107e-83 2.36128e-83 7.51687e-84 2.30612e-84 6.82524e-85 1.9506e-85 5.38807e-86 1.43981e-86 3.72523e-87 9.33979e-88 2.27092e-88 5.35889e-89 1.22821e-89 2.7359e-90 5.92718e-91 1.24967e-91 2.56571e-92 5.1327e-93 1.00105e-93 1.90448e-94 3.53618e-95 6.41138e-96 1.13563e-96 1.96606e-97 3.32833e-98 5.51205e-99 8.93387e-100 1.41769e-100 2.20348e-101 3.35572e-102 5.0092e-103 7.33178e-104 1.05258e-104 1.48269e-105 2.04929e-106 2.73395e-107 0 
0 1.38401e-151 1.89716e-150 2.55996e-149 3.41758e-148 4.51364e-147 5.89678e-146 7.61967e-145 9.73743e-144 1.23053e-142 1.53755e-141 1.89937e-140 2.31943e-139 2.79956e-138 3.33953e-137 3.93652e-136 4.58477e-135 5.27524e-134 5.99557e-133 6.73012e-132 7.46033e-131 8.16535e-130 8.82288e-129 9.41021e-128 9.90548e-127 1.0289e-125 1.05443e-124 1.06596e-123 1.06284e-122 1.04503e-121 1.01307e-120 9.6811e-120 9.11807e-119 8.46235e-118 7.73753e-117 6.96867e-116 6.18078e-115 5.39745e-114 4.63972e-113 3.92512e-112 3.26716e-111 2.67511e-110 2.15407e-109 1.70534e-108 1.32704e-107 1.01475e-106 7.62283e-106 5.6238e-105 4.07352e-104 2.89603e-103 2.02018e-102 1.38226e-101 9.27373e-101 6.09859e-100 3.92967e-99 2.48012e-98 1.53252e-97 9.2679e-97 5.48297e-96 3.17189e-95 1.79346e-94 9.90679e-94 5.34351e-93 2.81288e-92 1.44436e-91 7.23039e-91 3.52661e-90 1.67495e-89 7.74147e-89 3.47968e-88 1.52003e-87 6.44847e-87 2.65477e-86 1.05981e-85 4.09927e-85 1.53496e-84 5.55928e-84 1.94567e-83 6.57403e-83 2.14226e-82 6.72572e-82 2.03218e-81 5.90271e-81 1.64629e-80 4.40355e-80 1.12826e-79 2.76554e-79 6.47683e-79 1.44745e-78 3.08285e-78 6.24996e-78 1.20468e-77 2.20532e-77 3.83075e-77 6.30957e-77 9.85018e-77 1.4575e-76 2.04511e-76 2.72445e-76 3.45286e-76 4.17596e-76 4.84025e-76 5.40647e-76 5.85814e-76 6.20191e-76 6.4599e-76 6.65841e-76 6.81855e-76 6.95261e-76 7.0665e-76 7.16485e-76 7.25458e-76 7.34445e-76 7.44088e-76 7.54286e-76 7.63863e-76 7.70591e-76 7.71547e-76 7.6369e-76 7.44548e-76 7.12904e-76 6.69401e-76 6.16891e-76 5.60369e-76 5.06333e-76 4.61632e-76 4.32044e-76 4.21008e-76 4.28916e-76 4.53163e-76 4.88911e-76 5.30289e-76 5.71662e-76 6.08654e-76 6.38721e-76 6.61212e-76 6.7696e-76 6.87581e-76 6.94707e-76 6.99413e-76 7.02006e-76 7.02192e-76 6.99484e-76 6.9366e-76 6.85073e-76 6.74702e-76 6.63946e-76 6.54243e-76 6.4667e-76 6.41676e-76 6.39043e-76 6.38073e-76 6.37933e-76 6.38044e-76 6.38392e-76 6.3963e-76 6.42947e-76 6.49673e-76 6.60766e-76 6.76319e-76 6.95284e-76 7.15552e-76 7.34431e-76 7.4943e-76 7.59118e-76 7.63758e-76 7.65457e-76 7.67697e-76 7.743e-76 7.88081e-76 8.09613e-76 8.36579e-76 8.64051e-76 8.85733e-76 8.95805e-76 8.90749e-76 8.70492e-76 8.38458e-76 8.00536e-76 7.63392e-76 7.32745e-76 7.12188e-76 7.0278e-76 7.03265e-76 7.10603e-76 7.20546e-76 7.28231e-76 7.28893e-76 7.18734e-76 6.958e-76 6.60518e-76 6.15603e-76 5.65279e-76 5.14033e-76 4.6535e-76 4.20862e-76 3.80217e-76 3.4166e-76 3.0306e-76 2.62966e-76 2.21255e-76 1.79185e-76 1.38893e-76 1.02639e-76 7.21279e-77 4.813e-77 3.0477e-77 1.83125e-77 1.04448e-77 5.65872e-78 2.91458e-78 1.42861e-78 6.67135e-79 2.97152e-79 1.26395e-79 5.14033e-80 2.00118e-80 7.4668e-81 2.67327e-81 9.1941e-82 3.04099e-82 9.68342e-83 2.97168e-83 8.79776e-84 2.51512e-84 6.94967e-85 1.85771e-85 4.80812e-86 1.2059e-86 2.93312e-87 6.92404e-88 1.58752e-88 3.5376e-89 7.66693e-90 1.6171e-90 3.32139e-91 6.64709e-92 1.29693e-92 2.4684e-93 4.58515e-94 8.31672e-95 1.47375e-95 2.55251e-96 4.32299e-97 7.16244e-98 1.16139e-98 1.8438e-99 2.86706e-100 4.36826e-101 6.52362e-102 9.55276e-103 1.37207e-103 1.93363e-104 2.6738e-105 3.56872e-106 0 
0 1.82973e-150 2.5068e-149 3.38075e-148 4.51091e-147 5.95442e-146 7.77489e-145 1.00411e-143 1.2825e-142 1.61985e-141 2.02293e-140 2.49764e-139 3.04839e-138 3.67748e-137 4.38446e-136 5.16553e-135 6.013e-134 6.91494e-133 7.85505e-132 8.81281e-131 9.76391e-130 1.06811e-128 1.15352e-127 1.22968e-126 1.29373e-125 1.34312e-124 1.37575e-123 1.39008e-122 1.38532e-121 1.36141e-120 1.31911e-119 1.25993e-118 1.18606e-117 1.10022e-116 1.00548e-115 9.05117e-115 8.02386e-114 7.0035e-113 6.01734e-112 5.08808e-111 4.23312e-110 3.46435e-109 2.78824e-108 2.20634e-107 1.71608e-106 1.31162e-105 9.84827e-105 7.26222e-104 5.25783e-103 3.73627e-102 2.60511e-101 1.78166e-100 1.19479e-99 7.85362e-99 5.05827e-98 3.19098e-97 1.9709e-96 1.19138e-95 7.04523e-95 4.0739e-94 2.3025e-93 1.27132e-92 6.85435e-92 3.6067e-91 1.85121e-90 9.2633e-90 4.51634e-89 2.14417e-88 9.90628e-88 4.45101e-87 1.9436e-86 8.24228e-86 3.39201e-85 1.35363e-84 5.23389e-84 1.95913e-83 7.0931e-83 2.48165e-82 8.38225e-82 2.73063e-81 8.57026e-81 2.58872e-80 7.51706e-80 2.09594e-79 5.60476e-79 1.43565e-78 3.51812e-78 8.23737e-78 1.84048e-77 3.9191e-77 7.94373e-77 1.53087e-76 2.80198e-76 4.86643e-76 8.01435e-76 1.25101e-75 1.85091e-75 2.59693e-75 3.45937e-75 4.38411e-75 5.30213e-75 6.14554e-75 6.86448e-75 7.43802e-75 7.87453e-75 8.20206e-75 8.45399e-75 8.65714e-75 8.82719e-75 8.9717e-75 9.09656e-75 9.21057e-75 9.3248e-75 9.44735e-75 9.5769e-75 9.6985e-75 9.7839e-75 9.79602e-75 9.69632e-75 9.45344e-75 9.05198e-75 8.5001e-75 7.834e-75 7.11705e-75 6.43169e-75 5.86478e-75 5.48962e-75 5.34983e-75 5.45035e-75 5.75811e-75 6.21175e-75 6.73678e-75 7.26174e-75 7.73111e-75 8.11264e-75 8.39803e-75 8.59786e-75 8.7326e-75 8.82289e-75 8.8824e-75 8.91504e-75 8.9171e-75 8.88248e-75 8.80842e-75 8.69943e-75 8.56796e-75 8.43174e-75 8.30895e-75 8.21321e-75 8.15016e-75 8.117e-75 8.10484e-75 8.10313e-75 8.10453e-75 8.10886e-75 8.12445e-75 8.16636e-75 8.25147e-75 8.39192e-75 8.5889e-75 8.82912e-75 9.08587e-75 9.32507e-75 9.51515e-75 9.63801e-75 9.69699e-75 9.71875e-75 9.74739e-75 9.83129e-75 1.00061e-74 1.0279e-74 1.06206e-74 1.09686e-74 1.12431e-74 1.13706e-74 1.13065e-74 1.10499e-74 1.0644e-74 1.01637e-74 9.69308e-75 9.30476e-75 9.04423e-75 8.92488e-75 8.93084e-75 9.02359e-75 9.14933e-75 9.24642e-75 9.25447e-75 9.12533e-75 8.83423e-75 8.38654e-75 7.81663e-75 7.17804e-75 6.52766e-75 5.90966e-75 5.3448e-75 4.82866e-75 4.33897e-75 3.84876e-75 3.3396e-75 2.80996e-75 2.27576e-75 1.76413e-75 1.30377e-75 9.16284e-76 6.1149e-76 3.87256e-76 2.32719e-76 1.32754e-76 7.19335e-77 3.70563e-77 1.81667e-77 8.48511e-78 3.78015e-78 1.60824e-78 6.54197e-79 2.54745e-79 9.50733e-80 3.40469e-80 1.17127e-80 3.87509e-81 1.23429e-81 3.78895e-82 1.12207e-82 3.20878e-83 8.86921e-84 2.3716e-84 6.14022e-85 1.54052e-85 3.74834e-86 8.85167e-87 2.03022e-87 4.52578e-88 9.81228e-89 2.07039e-89 4.25407e-90 8.51701e-91 1.66244e-91 3.16535e-92 5.88218e-93 1.06738e-93 1.89222e-94 3.27869e-95 5.55525e-96 9.20807e-97 1.49375e-97 2.37249e-98 3.69079e-99 5.62583e-100 8.40549e-101 1.23141e-101 1.76949e-102 2.49486e-103 3.45146e-104 4.60876e-105 0 
0 2.3928e-149 3.27647e-148 4.41638e-147 5.88957e-146 7.77008e-145 1.01402e-143 1.30889e-142 1.67089e-141 2.10927e-140 2.63274e-139 3.24883e-138 3.96311e-137 4.77845e-136 5.69408e-135 6.70493e-134 7.80087e-133 8.9663e-132 1.018e-130 1.14153e-129 1.26407e-128 1.38209e-127 1.49184e-126 1.58951e-125 1.67145e-124 1.73438e-123 1.7756e-122 1.79319e-121 1.78614e-120 1.75442e-119 1.69905e-118 1.62202e-117 1.52616e-116 1.41499e-115 1.29251e-114 1.16292e-113 1.03042e-112 8.98944e-112 7.71987e-111 6.52451e-110 5.42556e-109 4.43809e-108 3.57022e-107 2.82378e-106 2.19528e-105 1.67708e-104 1.25864e-103 9.27702e-103 6.71342e-102 4.76842e-101 3.32325e-100 2.27177e-99 1.52277e-98 1.0005e-97 6.44103e-97 4.06148e-96 2.50746e-95 1.51506e-94 8.95544e-94 5.17626e-93 2.92428e-92 1.61396e-91 8.69807e-91 4.57497e-90 2.34724e-89 1.17406e-88 5.72188e-88 2.71544e-87 1.25408e-86 5.63256e-86 2.45861e-85 1.04224e-84 4.28766e-84 1.71044e-83 6.61117e-83 2.47382e-82 8.9535e-82 3.13151e-81 1.05739e-80 3.44349e-80 1.08043e-79 3.26256e-79 9.47099e-79 2.64e-78 7.05775e-78 1.80737e-77 4.42792e-77 1.03652e-76 2.31537e-76 4.92931e-76 9.98939e-76 1.92475e-75 3.52232e-75 6.11659e-75 1.00719e-74 1.57201e-74 2.32561e-74 3.26271e-74 4.34602e-74 5.50759e-74 6.66074e-74 7.72023e-74 8.62343e-74 9.344e-74 9.89241e-74 1.03038e-73 1.06202e-73 1.08752e-73 1.10886e-73 1.127e-73 1.14268e-73 1.15701e-73 1.17138e-73 1.18679e-73 1.20307e-73 1.21834e-73 1.22907e-73 1.23059e-73 1.21807e-73 1.18758e-73 1.13719e-73 1.06792e-73 9.84322e-74 8.94345e-74 8.08339e-74 7.37207e-74 6.90144e-74 6.72625e-74 6.85266e-74 7.23917e-74 7.80873e-74 8.46787e-74 9.12689e-74 9.71614e-74 1.01951e-73 1.05534e-73 1.08043e-73 1.09734e-73 1.10866e-73 1.11611e-73 1.12017e-73 1.12039e-73 1.11601e-73 1.1067e-73 1.09301e-73 1.07652e-73 1.05945e-73 1.04408e-73 1.0321e-73 1.02423e-73 1.0201e-73 1.01859e-73 1.01838e-73 1.01855e-73 1.01909e-73 1.02103e-73 1.02627e-73 1.03693e-73 1.05452e-73 1.0792e-73 1.1093e-73 1.14148e-73 1.17147e-73 1.1953e-73 1.21072e-73 1.21813e-73 1.22089e-73 1.22451e-73 1.23506e-73 1.25699e-73 1.29121e-73 1.33403e-73 1.37764e-73 1.41204e-73 1.42801e-73 1.41996e-73 1.38779e-73 1.33693e-73 1.27672e-73 1.21773e-73 1.16905e-73 1.13638e-73 1.12141e-73 1.12213e-73 1.13373e-73 1.14946e-73 1.1616e-73 1.16256e-73 1.14632e-73 1.10976e-73 1.05356e-73 9.82013e-74 9.01839e-74 8.20171e-74 7.42555e-74 6.71596e-74 6.06745e-74 5.45212e-74 4.83614e-74 4.19641e-74 3.53097e-74 2.85983e-74 2.21703e-74 1.6386e-74 1.15171e-74 7.68685e-75 4.86865e-75 2.92616e-75 1.66945e-75 9.04741e-76 4.66149e-76 2.28568e-76 1.06777e-76 4.75786e-77 2.02462e-77 8.23748e-78 3.20841e-78 1.19769e-78 4.29015e-79 1.47627e-79 4.88546e-80 1.55655e-80 4.77956e-81 1.41585e-81 4.05015e-82 1.11983e-82 2.99537e-83 7.75775e-84 1.94701e-84 4.73902e-85 1.11951e-85 2.56863e-86 5.72812e-87 1.24237e-87 2.62239e-88 5.39036e-89 1.07962e-89 2.10816e-90 4.01562e-91 7.46528e-92 1.3552e-92 2.40347e-93 4.16632e-94 7.06221e-95 1.17109e-95 1.90059e-96 3.02e-97 4.70018e-98 7.16763e-99 1.07139e-99 1.5703e-100 2.25751e-101 3.18438e-102 4.40741e-103 5.88789e-104 0 
0 3.09494e-148 4.23564e-147 5.70619e-146 7.60554e-145 1.00286e-143 1.30806e-142 1.68753e-141 2.15311e-140 2.71656e-139 3.38894e-138 4.17977e-137 5.09605e-136 6.14122e-135 7.31414e-134 8.60808e-133 1.00098e-131 1.14993e-130 1.30491e-129 1.46249e-128 1.61865e-127 1.76886e-126 1.90834e-125 2.03224e-124 2.13591e-123 2.21519e-122 2.26669e-121 2.28798e-120 2.27782e-119 2.23625e-118 2.16459e-117 2.06541e-116 1.94238e-115 1.8e-114 1.64337e-113 1.47788e-112 1.30885e-111 1.14129e-110 9.7963e-110 8.27541e-109 6.87823e-108 5.62367e-107 4.5218e-106 3.57471e-105 2.77776e-104 2.12106e-103 1.5911e-102 1.1722e-101 8.47885e-101 6.01961e-100 4.19332e-99 2.86525e-98 1.91971e-97 1.26074e-96 8.11278e-96 5.11338e-95 3.1555e-94 1.90579e-93 1.12602e-92 6.50563e-92 3.67375e-91 2.02676e-90 1.09182e-89 5.74036e-89 2.94397e-88 1.47195e-87 7.17083e-87 3.40174e-86 1.57043e-85 7.05075e-85 3.0765e-84 1.3037e-83 5.36131e-83 2.13798e-82 8.26084e-82 3.09005e-81 1.11801e-80 3.90899e-80 1.31949e-79 4.29572e-79 1.34742e-78 4.06758e-78 1.18046e-77 3.28958e-77 8.79199e-77 2.25091e-76 5.51323e-76 1.29027e-75 2.88158e-75 6.13349e-75 1.24273e-74 2.39406e-74 4.38047e-74 7.60567e-74 1.25222e-73 1.95424e-73 2.89082e-73 4.05538e-73 5.4016e-73 6.84505e-73 8.27809e-73 9.59482e-73 1.07174e-72 1.1613e-72 1.22947e-72 1.28059e-72 1.31989e-72 1.35155e-72 1.37805e-72 1.40058e-72 1.42007e-72 1.43789e-72 1.45576e-72 1.47492e-72 1.49517e-72 1.51415e-72 1.52747e-72 1.52936e-72 1.51382e-72 1.47595e-72 1.41338e-72 1.32736e-72 1.22356e-72 1.11185e-72 1.00508e-72 9.16783e-73 8.58377e-73 8.36656e-73 8.52385e-73 9.00407e-73 9.71153e-73 1.05302e-72 1.13486e-72 1.20805e-72 1.26753e-72 1.31204e-72 1.3432e-72 1.36419e-72 1.37823e-72 1.38745e-72 1.39245e-72 1.39268e-72 1.3872e-72 1.37561e-72 1.35861e-72 1.33814e-72 1.31698e-72 1.29794e-72 1.28312e-72 1.2734e-72 1.2683e-72 1.26646e-72 1.26621e-72 1.26642e-72 1.26707e-72 1.26946e-72 1.27594e-72 1.28914e-72 1.31094e-72 1.34154e-72 1.37886e-72 1.41876e-72 1.45594e-72 1.4855e-72 1.50464e-72 1.51386e-72 1.51732e-72 1.52185e-72 1.53496e-72 1.56219e-72 1.60464e-72 1.65774e-72 1.7118e-72 1.75444e-72 1.77423e-72 1.76424e-72 1.72434e-72 1.66128e-72 1.58662e-72 1.51348e-72 1.45311e-72 1.41258e-72 1.39398e-72 1.39485e-72 1.4092e-72 1.42867e-72 1.44368e-72 1.44482e-72 1.42462e-72 1.3792e-72 1.30939e-72 1.22054e-72 1.12096e-72 1.01951e-72 9.2307e-73 8.34885e-73 7.54274e-73 6.7778e-73 6.01206e-73 5.21683e-73 4.3897e-73 3.55549e-73 2.75649e-73 2.03747e-73 1.43219e-73 9.55983e-74 6.05564e-74 3.64003e-74 2.07702e-74 1.12578e-74 5.80128e-75 2.84503e-75 1.32931e-75 5.9244e-76 2.52152e-76 1.02614e-76 3.99758e-77 1.49264e-77 5.34794e-78 1.84072e-78 6.09318e-79 1.94187e-79 5.96441e-80 1.76736e-80 5.05718e-81 1.3987e-81 3.74248e-82 9.69587e-83 2.43424e-83 5.92698e-84 1.40063e-84 3.21479e-85 7.17168e-86 1.55604e-86 3.28571e-87 6.75641e-88 1.35375e-88 2.64448e-89 5.03921e-90 9.372e-91 1.70203e-91 3.01983e-92 5.23694e-93 8.88075e-94 1.47329e-94 2.39206e-95 3.80258e-96 5.92076e-97 9.03298e-98 1.35082e-98 1.98074e-99 2.84886e-100 4.02038e-101 5.56705e-102 7.44039e-103 0 
0 3.95891e-147 5.41516e-146 7.2913e-145 9.71306e-144 1.28007e-142 1.66875e-141 2.15171e-140 2.74388e-139 3.46009e-138 4.31423e-137 5.31817e-136 6.48059e-135 7.80561e-134 9.29155e-133 1.09296e-131 1.27028e-130 1.45853e-129 1.65424e-128 1.85305e-127 2.04985e-126 2.23893e-125 2.41424e-124 2.56966e-123 2.69936e-122 2.79813e-121 2.86173e-120 2.88715e-119 2.87289e-118 2.81903e-117 2.72733e-116 2.60107e-115 2.44491e-114 2.26457e-113 2.06651e-112 1.85749e-111 1.64424e-110 1.43304e-109 1.22946e-108 1.03808e-107 8.62404e-107 7.04768e-106 5.6641e-105 4.47564e-104 3.47619e-103 2.65314e-102 1.98931e-101 1.46489e-100 1.05911e-99 7.51575e-99 5.23316e-98 3.57416e-97 2.3936e-96 1.57126e-95 1.01065e-94 6.3672e-94 3.92754e-93 2.37105e-92 1.40031e-91 8.08696e-91 4.56482e-90 2.5173e-89 1.35552e-88 7.12391e-88 3.65206e-87 1.82527e-86 8.88858e-86 4.21499e-85 1.94513e-84 8.72976e-84 3.80772e-83 1.61297e-82 6.63079e-82 2.6433e-81 1.02098e-80 3.81779e-80 1.38086e-79 4.82645e-79 1.62867e-78 5.30066e-78 1.66214e-77 5.01622e-77 1.45536e-76 4.05455e-76 1.08337e-75 2.77293e-75 6.79022e-75 1.58877e-74 3.54747e-74 7.54931e-74 1.52931e-73 2.94563e-73 5.38884e-73 9.35515e-73 1.54007e-72 2.40321e-72 3.55464e-72 4.98627e-72 6.64116e-72 8.41558e-72 1.01773e-71 1.1796e-71 1.31762e-71 1.42775e-71 1.51155e-71 1.5744e-71 1.62269e-71 1.66158e-71 1.69412e-71 1.7218e-71 1.74576e-71 1.76768e-71 1.78967e-71 1.81325e-71 1.83815e-71 1.86148e-71 1.87786e-71 1.88018e-71 1.86107e-71 1.81456e-71 1.73769e-71 1.63205e-71 1.50456e-71 1.36736e-71 1.23624e-71 1.12782e-71 1.05612e-71 1.02948e-71 1.04884e-71 1.10786e-71 1.19479e-71 1.29537e-71 1.39592e-71 1.48582e-71 1.55891e-71 1.61359e-71 1.65187e-71 1.67766e-71 1.69488e-71 1.70616e-71 1.71226e-71 1.71248e-71 1.70571e-71 1.69143e-71 1.67054e-71 1.64542e-71 1.61947e-71 1.59614e-71 1.57801e-71 1.56612e-71 1.55991e-71 1.55767e-71 1.55737e-71 1.55763e-71 1.55842e-71 1.56133e-71 1.56926e-71 1.58543e-71 1.61216e-71 1.64967e-71 1.69544e-71 1.74437e-71 1.78998e-71 1.82626e-71 1.84975e-71 1.8611e-71 1.86538e-71 1.87099e-71 1.88712e-71 1.92055e-71 1.97263e-71 2.03777e-71 2.10407e-71 2.15636e-71 2.1806e-71 2.16834e-71 2.1194e-71 2.04205e-71 1.95048e-71 1.86077e-71 1.78671e-71 1.73698e-71 1.71414e-71 1.71516e-71 1.73273e-71 1.75656e-71 1.77492e-71 1.77626e-71 1.75139e-71 1.69557e-71 1.6098e-71 1.50064e-71 1.3783e-71 1.25364e-71 1.13511e-71 1.0267e-71 9.27582e-72 8.33516e-72 7.39349e-72 6.41562e-72 5.39856e-72 4.37281e-72 3.39034e-72 2.50618e-72 1.76181e-72 1.17612e-72 7.45094e-73 4.47929e-73 2.55625e-73 1.38573e-73 7.14192e-74 3.50308e-74 1.63706e-74 7.29731e-75 3.10646e-75 1.26444e-75 4.92702e-76 1.84009e-76 6.5944e-77 2.27031e-77 7.51713e-78 2.39632e-78 7.36229e-79 2.1822e-79 6.24606e-80 1.72804e-80 4.62515e-81 1.19865e-81 3.01032e-82 7.3321e-83 1.73328e-83 3.9797e-84 8.88125e-85 1.92767e-85 4.07195e-86 8.37633e-87 1.67897e-87 3.28106e-88 6.25472e-89 1.16373e-89 2.11429e-90 3.75281e-91 6.51076e-92 1.10455e-92 1.83319e-93 2.97768e-94 4.73559e-95 7.3767e-96 1.12592e-96 1.68448e-97 2.47111e-98 3.55575e-99 5.02023e-100 6.95474e-101 9.29919e-102 0 
0 5.0076e-146 6.84598e-145 9.21289e-144 1.22663e-142 1.61569e-141 2.10516e-140 2.71298e-139 3.45779e-138 4.35804e-137 5.43098e-136 6.69126e-135 8.14951e-134 9.81061e-133 1.16721e-131 1.37227e-130 1.59407e-129 1.82936e-128 2.07375e-127 2.32178e-126 2.56703e-125 2.80238e-124 3.02026e-123 3.21306e-122 3.37352e-121 3.49518e-120 3.57281e-119 3.60273e-118 3.58313e-117 3.5142e-116 3.39819e-115 3.23927e-114 3.04328e-113 2.81742e-112 2.56973e-111 2.30869e-110 2.04264e-109 1.77941e-108 1.52588e-107 1.28774e-106 1.0693e-105 8.7343e-105 7.01629e-104 5.54149e-103 4.30201e-102 3.2819e-101 2.45961e-100 1.81038e-99 1.30829e-98 9.27982e-98 6.45856e-97 4.4091e-96 2.95145e-95 1.93659e-94 1.24509e-93 7.84078e-93 4.83441e-92 2.91728e-91 1.72218e-90 9.94161e-90 5.60937e-89 3.09206e-88 1.66434e-87 8.74338e-87 4.4805e-86 2.23843e-85 1.08964e-84 5.16512e-84 2.38269e-83 1.06896e-82 4.66085e-82 1.97365e-81 8.11066e-81 3.23211e-80 1.24799e-79 4.6651e-79 1.68677e-78 5.89384e-78 1.98824e-77 6.46898e-77 2.0279e-76 6.11832e-76 1.77462e-75 4.9427e-75 1.32035e-74 3.37866e-74 8.27158e-74 1.93495e-73 4.31953e-73 9.19053e-73 1.86144e-72 3.58475e-72 6.55707e-72 1.13816e-71 1.87345e-71 2.92313e-71 4.3233e-71 6.06409e-71 8.07631e-71 1.02339e-70 1.2376e-70 1.43445e-70 1.6023e-70 1.73623e-70 1.83815e-70 1.91456e-70 1.97326e-70 2.02051e-70 2.06004e-70 2.09366e-70 2.12279e-70 2.14947e-70 2.17623e-70 2.20492e-70 2.2352e-70 2.26358e-70 2.28348e-70 2.2863e-70 2.26308e-70 2.20656e-70 2.11318e-70 1.98483e-70 1.82995e-70 1.6633e-70 1.50403e-70 1.37235e-70 1.28529e-70 1.25299e-70 1.27656e-70 1.34831e-70 1.45395e-70 1.57617e-70 1.69835e-70 1.8076e-70 1.89641e-70 1.96286e-70 2.00938e-70 2.0407e-70 2.0616e-70 2.07526e-70 2.0826e-70 2.08281e-70 2.07451e-70 2.05713e-70 2.03173e-70 2.00124e-70 1.96977e-70 1.9415e-70 1.91954e-70 1.90517e-70 1.89769e-70 1.895e-70 1.89466e-70 1.89497e-70 1.89591e-70 1.89942e-70 1.90901e-70 1.92861e-70 1.96101e-70 2.0065e-70 2.06201e-70 2.12138e-70 2.17671e-70 2.22073e-70 2.24926e-70 2.26307e-70 2.26832e-70 2.27518e-70 2.2948e-70 2.3354e-70 2.39862e-70 2.47765e-70 2.55807e-70 2.62147e-70 2.65086e-70 2.63597e-70 2.5766e-70 2.48276e-70 2.37168e-70 2.26284e-70 2.17298e-70 2.11262e-70 2.08487e-70 2.08608e-70 2.10734e-70 2.1362e-70 2.1584e-70 2.15995e-70 2.12967e-70 2.06182e-70 1.9576e-70 1.82496e-70 1.67629e-70 1.52478e-70 1.38069e-70 1.24887e-70 1.12832e-70 1.0139e-70 8.99363e-71 7.80422e-71 6.56721e-71 5.31964e-71 4.12468e-71 3.04923e-71 2.14375e-71 1.43124e-71 9.06813e-72 5.45214e-72 3.11184e-72 1.68715e-72 8.69671e-73 4.26637e-73 1.9941e-73 8.89044e-74 3.78538e-74 1.54109e-74 6.00628e-75 2.24367e-75 8.04255e-76 2.76955e-76 9.17246e-77 2.92477e-77 8.98832e-78 2.6649e-78 7.62993e-79 2.11154e-79 5.65332e-80 1.46558e-80 3.68187e-81 8.97075e-82 2.12137e-82 4.87247e-83 1.08774e-83 2.36179e-84 4.99082e-85 1.02703e-85 2.05939e-86 4.02604e-87 7.67788e-88 1.42908e-88 2.59743e-89 4.61226e-90 8.00512e-91 1.35864e-91 2.25584e-92 3.66576e-93 5.83237e-94 9.08913e-95 1.3879e-95 2.07734e-96 3.04879e-97 4.38896e-98 6.19941e-99 8.59222e-100 1.14937e-100 0 