# vtk DataFile Version 3.0
Gray-Scott Simulation Output
ASCII
DATASET STRUCTURED_POINTS
DIMENSIONS 256 256 1
SPACING 1.0 1.0 1.0
ORIGIN 0 0 0
POINT_DATA 65536
SCALARS u double
LOOKUP_TABLE default
0 0 0 0 0 0 0 0 0 0 0 0 0 0 0 0 0 0 0 0 0 0 0 0 0 0 0 0 0 0 0 0 0 0 0 0 0 0 0 0 0 0 0 0 0 0 0 0 0 0 0 0 0 0 0 0 0 0 0 0 0 0 0 0 0 0 0 0 0 0 0 0 0 0 0 0 0 0 0 0 0 0 0 0 0 0 0 0 0 0 0 0 0 0 0 0 0 0 0 0 0 0 0 0 0 0 0 0 0 0 0 0 0 0 0 0 0 0 0 0 0 0 0 0 0 0 0 0 0 0 0 0 0 0 0 0 0 0 0 0 0 0 0 0 0 0 0 0 0 0 0 0 0 0 0 0 0 0 0 0 0 0 0 0 0 0 0 0 0 0 0 0 0 0 0 0 0 0 0 0 0 0 0 0 0 0 0 0 0 0 0 0 0 0 0 0 0 0 0 0 0 0 0 0 0 0 0 0 0 0 0 0 0 0 0 0 0 0 0 0 0 0 0 0 0 0 0 0 0 0 0 0 0 0 0 0 0 0 0 0 0 0 0 0 0 0 0 0 0 0 0 0 0 0 0 0 
0 1.27664e-73 4.1172e-73 1.19391e-72 3.39881e-72 9.58956e-72 2.68442e-71 7.45621e-71 2.05488e-70 5.61873e-70 1.52422e-69 4.10202e-69 1.09512e-68 2.90016e-68 7.61822e-68 1.98488e-67 5.12908e-67 1.31446e-66 3.34068e-66 8.41934e-66 2.10403e-65 5.21354e-65 1.28084e-64 3.11972e-64 7.53297e-64 1.80311e-63 4.2782e-63 1.00612e-62 2.34515e-62 5.41737e-62 1.24017e-61 2.81331e-61 6.3237e-61 1.40837e-60 3.10756e-60 6.79292e-60 1.47094e-59 3.15506e-59 6.7029e-59 1.41036e-58 2.93888e-58 6.06433e-58 1.2391e-57 2.50678e-57 5.02093e-57 9.95581e-57 1.95417e-56 3.7967e-56 7.30093e-56 1.38945e-55 2.6168e-55 4.87667e-55 8.99228e-55 1.6405e-54 2.96079e-54 5.28605e-54 9.33498e-54 1.63049e-53 2.81654e-53 4.81136e-53 8.12725e-53 1.35741e-52 2.24147e-52 3.65915e-52 5.905e-52 9.41935e-52 1.48509e-51 2.31412e-51 3.5636e-51 5.42295e-51 8.15454e-51 1.21159e-50 1.77859e-50 2.57953e-50 3.69597e-50 5.23144e-50 7.31478e-50 1.01031e-49 1.37839e-49 1.85756e-49 2.47264e-49 3.25106e-49 4.22221e-49 5.41641e-49 6.86358e-49 8.59162e-49 1.06245e-48 1.29802e-48 1.56685e-48 1.86895e-48 2.20314e-48 2.567e-48 2.95681e-48 3.36761e-48 3.79333e-48 4.22699e-48 4.66105e-48 5.08768e-48 5.49921e-48 5.88847e-48 6.24913e-48 6.57602e-48 6.8653e-48 7.11458e-48 7.32293e-48 7.49078e-48 7.61976e-48 7.71245e-48 7.77213e-48 7.8025e-48 7.80743e-48 7.79076e-48 7.7561e-48 7.7068e-48 7.64583e-48 7.57586e-48 7.49926e-48 7.4182e-48 7.33471e-48 7.25074e-48 7.16824e-48 7.0891e-48 7.0152e-48 6.94832e-48 6.89009e-48 6.84189e-48 6.80478e-48 6.77941e-48 6.76599e-48 6.76424e-48 6.77342e-48 6.79236e-48 6.81954e-48 6.85319e-48 6.89137e-48 6.93213e-48 6.97358e-48 7.01403e-48 7.05203e-48 7.08646e-48 7.11654e-48 7.14186e-48 7.16236e-48 7.17828e-48 7.19013e-48 7.19865e-48 7.2047e-48 7.20926e-48 7.21335e-48 7.21795e-48 7.22401e-48 7.23236e-48 7.24373e-48 7.25871e-48 7.2777e-48 7.30099e-48 7.32868e-48 7.3607e-48 7.39684e-48 7.43676e-48 7.47994e-48 7.52576e-48 7.57348e-48 7.62225e-48 7.67115e-48 7.71916e-48 7.76526e-48 7.80837e-48 7.84746e-48 7.88154e-48 7.90969e-48 7.93114e-48 7.94527e-48 7.95164e-48 7.94999e-48 7.94027e-48 7.9226e-48 7.89726e-48 7.86464e-48 7.82517e-48 7.77928e-48 7.72733e-48 7.66953e-48 7.60591e-48 7.53623e-48 7.46e-48 7.37641e-48 7.28436e-48 7.18247e-48 7.06914e-48 6.9426e-48 6.80097e-48 6.64243e-48 6.46528e-48 6.26811e-48 6.04992e-48 5.81023e-48 5.54925e-48 5.26788e-48 4.96785e-48 4.65163e-48 4.32244e-48 3.98411e-48 3.64098e-48 3.29765e-48 2.95884e-48 2.62912e-48 2.31276e-48 2.0135e-48 1.73443e-48 1.47788e-48 1.24541e-48 1.03774e-48 8.54876e-49 6.9613e-49 5.60272e-49 4.45641e-49 3.50278e-49 2.72053e-49 2.08776e-49 1.583e-49 1.18588e-49 8.7771e-50 6.41817e-50 4.63683e-50 3.30968e-50 2.33407e-50 1.62635e-50 1.1197e-50 7.61714e-51 5.12038e-51 3.40137e-51 2.23289e-51 1.44866e-51 9.28916e-52 5.88738e-52 3.68834e-52 2.28418e-52 1.39846e-52 8.4649e-53 5.06608e-53 2.99801e-53 1.75443e-53 1.01534e-53 5.8116e-54 3.29015e-54 1.84249e-54 1.02069e-54 5.59373e-55 3.03254e-55 1.62572e-55 8.60338e-56 4.46311e-56 2.20501e-56 9.02903e-57 0 
0 4.11019e-73 1.32584e-72 3.84572e-72 1.0951e-71 3.09067e-71 8.6543e-71 2.40453e-70 6.62878e-70 1.81309e-69 4.92004e-69 1.32452e-68 3.53726e-68 9.37071e-68 2.46236e-67 6.41776e-67 1.65899e-66 4.25312e-66 1.08132e-65 2.72621e-65 6.8155e-65 1.68945e-64 4.15219e-64 1.01174e-63 2.44397e-63 5.85234e-63 1.38914e-62 3.26829e-62 7.62119e-62 1.76128e-61 4.03376e-61 9.15458e-61 2.05867e-60 4.58698e-60 1.01258e-59 2.21446e-59 4.79743e-59 1.0295e-58 2.18819e-58 4.60639e-58 9.60329e-58 1.98258e-57 4.05289e-57 8.20329e-57 1.64388e-56 3.26118e-56 6.40433e-56 1.2449e-55 2.39507e-55 4.56036e-55 8.59287e-55 1.60215e-54 2.95572e-54 5.39485e-54 9.74137e-54 1.74001e-53 3.07424e-53 5.37212e-53 9.28414e-53 1.58668e-52 2.68139e-52 4.48037e-52 7.40153e-52 1.20878e-51 1.95148e-51 3.11411e-51 4.91167e-51 7.65629e-51 1.17943e-50 1.7954e-50 2.7006e-50 4.01368e-50 5.89362e-50 8.5498e-50 1.2253e-49 1.73471e-49 2.42597e-49 3.35126e-49 4.57278e-49 6.16302e-49 8.20433e-49 1.07876e-48 1.40102e-48 1.79724e-48 2.27729e-48 2.85037e-48 3.52434e-48 4.30502e-48 5.19554e-48 6.1957e-48 7.3014e-48 8.50438e-48 9.79205e-48 1.11477e-47 1.2551e-47 1.39785e-47 1.54052e-47 1.68049e-47 1.81523e-47 1.94236e-47 2.0598e-47 2.16587e-47 2.25932e-47 2.33942e-47 2.40589e-47 2.45893e-47 2.49912e-47 2.52739e-47 2.54485e-47 2.55277e-47 2.55246e-47 2.54522e-47 2.53227e-47 2.5147e-47 2.49352e-47 2.46958e-47 2.44367e-47 2.41647e-47 2.38863e-47 2.36078e-47 2.33351e-47 2.30744e-47 2.28316e-47 2.26122e-47 2.24215e-47 2.22638e-47 2.21423e-47 2.20592e-47 2.20151e-47 2.20089e-47 2.20383e-47 2.20994e-47 2.21873e-47 2.22961e-47 2.24197e-47 2.25515e-47 2.26856e-47 2.28164e-47 2.29392e-47 2.30504e-47 2.31475e-47 2.32291e-47 2.32951e-47 2.33462e-47 2.33842e-47 2.34113e-47 2.34305e-47 2.34449e-47 2.34578e-47 2.34724e-47 2.34917e-47 2.35185e-47 2.35552e-47 2.36035e-47 2.3665e-47 2.37403e-47 2.383e-47 2.39337e-47 2.40509e-47 2.41803e-47 2.43203e-47 2.44689e-47 2.46236e-47 2.47818e-47 2.49405e-47 2.50963e-47 2.52459e-47 2.53859e-47 2.55128e-47 2.56236e-47 2.57152e-47 2.57852e-47 2.58315e-47 2.58527e-47 2.58481e-47 2.58175e-47 2.57615e-47 2.56809e-47 2.5577e-47 2.54515e-47 2.53058e-47 2.51411e-47 2.49582e-47 2.47572e-47 2.45376e-47 2.42977e-47 2.40349e-47 2.37456e-47 2.34252e-47 2.30684e-47 2.26692e-47 2.22213e-47 2.17184e-47 2.11547e-47 2.05251e-47 1.98261e-47 1.90557e-47 1.82142e-47 1.73044e-47 1.63316e-47 1.53037e-47 1.42312e-47 1.31266e-47 1.20041e-47 1.08791e-47 9.7672e-48 8.68364e-48 7.64268e-48 6.65689e-48 5.73671e-48 4.89007e-48 4.12227e-48 3.43594e-48 2.83121e-48 2.30598e-48 1.85629e-48 1.47671e-48 1.16084e-48 9.01666e-49 6.9198e-49 5.24686e-49 3.93053e-49 2.90899e-49 2.12701e-49 1.53652e-49 1.0966e-49 7.73233e-50 5.38687e-50 3.708e-50 2.52195e-50 1.69491e-50 1.12561e-50 7.38728e-51 4.79137e-51 3.07141e-51 1.94602e-51 1.21874e-51 7.54508e-52 4.61775e-52 2.7941e-52 1.67159e-52 9.88832e-53 5.78435e-53 3.34624e-53 1.91453e-53 1.08344e-53 6.06472e-54 3.35826e-54 1.83965e-54 9.96904e-55 5.342e-55 2.8258e-55 1.46531e-55 7.23679e-56 2.96253e-56 0 
0 1.18941e-72 3.83776e-72 1.11354e-71 3.17199e-71 8.95537e-71 2.50854e-70 6.97235e-70 1.92285e-69 5.26136e-69 1.42829e-68 3.84661e-68 1.02769e-67 2.72362e-67 7.15993e-67 1.86692e-66 4.82806e-66 1.23831e-65 3.14971e-65 7.94463e-65 1.98707e-64 4.92794e-64 1.21173e-63 2.95398e-63 7.13917e-63 1.71041e-62 4.06197e-62 9.56165e-62 2.23081e-61 5.15818e-61 1.18198e-60 2.68394e-60 6.03892e-60 1.34629e-59 2.97362e-59 6.50679e-59 1.41044e-58 3.02845e-58 6.4407e-58 1.35663e-57 2.82994e-57 5.84582e-57 1.19574e-56 2.42169e-56 4.85579e-56 9.63888e-56 1.89403e-55 3.6839e-55 7.09178e-55 1.35113e-54 2.5474e-54 4.7525e-54 8.77281e-54 1.60218e-53 2.89473e-53 5.17358e-53 9.14593e-53 1.59913e-52 2.76517e-52 4.72836e-52 7.99491e-52 1.33659e-51 2.20918e-51 3.60975e-51 5.83049e-51 9.30855e-51 1.46885e-50 2.29064e-50 3.53015e-50 5.37598e-50 8.08949e-50 1.2027e-49 1.76661e-49 2.56359e-49 3.67501e-49 5.20416e-49 7.27958e-49 1.0058e-48 1.37263e-48 1.85021e-48 2.46325e-48 3.23902e-48 4.20666e-48 5.39618e-48 6.83706e-48 8.55664e-48 1.05782e-47 1.29187e-47 1.5587e-47 1.85819e-47 2.18903e-47 2.54865e-47 2.93319e-47 3.33753e-47 3.75549e-47 4.17999e-47 4.60342e-47 5.01794e-47 5.41592e-47 5.79027e-47 6.13482e-47 6.44461e-47 6.71604e-47 6.94704e-47 7.13698e-47 7.28663e-47 7.39794e-47 7.47379e-47 7.51775e-47 7.53374e-47 7.52582e-47 7.49793e-47 7.45379e-47 7.39671e-47 7.32966e-47 7.25521e-47 7.1756e-47 7.09284e-47 7.00878e-47 6.92518e-47 6.84373e-47 6.76615e-47 6.6941e-47 6.62916e-47 6.57278e-47 6.5262e-47 6.49035e-47 6.46579e-47 6.45268e-47 6.45071e-47 6.45915e-47 6.47688e-47 6.50242e-47 6.53409e-47 6.57005e-47 6.60843e-47 6.64745e-47 6.68549e-47 6.72119e-47 6.75349e-47 6.78166e-47 6.80532e-47 6.8244e-47 6.83915e-47 6.85005e-47 6.85781e-47 6.86326e-47 6.86731e-47 6.87094e-47 6.87508e-47 6.88062e-47 6.88835e-47 6.89897e-47 6.91301e-47 6.93089e-47 6.95284e-47 6.97897e-47 7.00922e-47 7.04339e-47 7.08114e-47 7.12199e-47 7.16536e-47 7.21055e-47 7.25674e-47 7.30307e-47 7.34859e-47 7.39231e-47 7.43323e-47 7.47037e-47 7.50279e-47 7.52965e-47 7.55021e-47 7.5639e-47 7.57031e-47 7.56925e-47 7.56067e-47 7.54475e-47 7.52179e-47 7.4922e-47 7.45646e-47 7.41503e-47 7.36832e-47 7.31659e-47 7.25991e-47 7.19812e-47 7.13077e-47 7.05708e-47 6.97601e-47 6.88617e-47 6.78595e-47 6.67353e-47 6.54697e-47 6.40431e-47 6.24372e-47 6.06359e-47 5.86272e-47 5.64041e-47 5.39662e-47 5.13204e-47 4.84816e-47 4.54726e-47 4.23239e-47 3.90726e-47 3.57609e-47 3.24347e-47 2.91409e-47 2.59256e-47 2.2832e-47 1.98984e-47 1.71568e-47 1.46316e-47 1.23394e-47 1.02887e-47 8.48058e-48 6.90917e-48 5.56302e-48 4.42628e-48 3.47995e-48 2.70325e-48 2.07471e-48 1.57315e-48 1.17845e-48 8.72123e-49 6.37627e-49 4.60554e-49 3.28643e-49 2.3169e-49 1.61378e-49 1.11057e-49 7.55141e-50 5.07357e-50 3.36839e-50 2.20992e-50 1.43285e-50 9.18162e-51 5.81514e-51 3.64042e-51 2.2528e-51 1.37817e-51 8.33528e-52 4.98435e-52 2.94713e-52 1.72315e-52 9.96355e-53 5.69775e-53 3.22274e-53 1.80306e-53 9.97905e-54 5.46364e-54 2.95918e-54 1.58487e-54 8.37923e-55 4.34287e-55 2.14387e-55 8.7736e-56 0 
0 3.37864e-72 1.09046e-71 3.1651e-71 9.01931e-71 2.54735e-70 7.13824e-70 1.98481e-69 5.47593e-69 1.49895e-68 4.07085e-68 1.09681e-67 2.93157e-67 7.77273e-67 2.04422e-66 5.33262e-66 1.37971e-65 3.54036e-65 9.00939e-65 2.27357e-64 5.68932e-64 1.41166e-63 3.47287e-63 8.47061e-63 2.04824e-62 4.90979e-62 1.16663e-61 2.74768e-61 6.41408e-61 1.48393e-60 3.40229e-60 7.73006e-60 1.74029e-59 3.882e-59 8.57942e-59 1.87845e-58 4.07427e-58 8.75346e-58 1.86277e-57 3.92606e-57 8.19485e-57 1.69388e-56 3.46694e-56 7.02592e-56 1.40968e-55 2.80003e-55 5.50555e-55 1.07152e-54 2.06406e-54 3.93496e-54 7.42364e-54 1.38585e-53 2.55981e-53 4.67793e-53 8.45705e-53 1.51241e-52 2.67529e-52 4.68045e-52 8.09811e-52 1.38556e-51 2.34411e-51 3.92108e-51 6.4845e-51 1.06012e-50 1.7132e-50 2.73655e-50 4.32024e-50 6.74048e-50 1.03925e-49 1.58333e-49 2.38347e-49 3.54494e-49 5.20891e-49 7.56129e-49 1.08426e-48 1.53583e-48 2.14883e-48 2.96958e-48 4.05331e-48 5.46431e-48 7.27554e-48 9.56744e-48 1.24259e-47 1.59391e-47 2.01937e-47 2.52697e-47 3.12346e-47 3.81374e-47 4.60025e-47 5.48239e-47 6.45609e-47 7.51348e-47 8.64288e-47 9.82894e-47 1.10531e-46 1.22943e-46 1.35298e-46 1.47365e-46 1.58917e-46 1.69747e-46 1.79676e-46 1.88558e-46 1.96293e-46 2.02824e-46 2.08137e-46 2.12261e-46 2.1526e-46 2.17223e-46 2.18261e-46 2.18493e-46 2.18044e-46 2.17031e-46 2.15565e-46 2.13746e-46 2.1166e-46 2.09382e-46 2.06975e-46 2.04497e-46 2.02e-46 1.99531e-46 1.97138e-46 1.94868e-46 1.92766e-46 1.90876e-46 1.89239e-46 1.87887e-46 1.86847e-46 1.86133e-46 1.85751e-46 1.85689e-46 1.85926e-46 1.86431e-46 1.8716e-46 1.88065e-46 1.89092e-46 1.90189e-46 1.91304e-46 1.9239e-46 1.93409e-46 1.9433e-46 1.95132e-46 1.95805e-46 1.96346e-46 1.96764e-46 1.97071e-46 1.97288e-46 1.9744e-46 1.97552e-46 1.97651e-46 1.97766e-46 1.97922e-46 1.98141e-46 1.98443e-46 1.98843e-46 1.99354e-46 1.99981e-46 2.00729e-46 2.01595e-46 2.02574e-46 2.03655e-46 2.04826e-46 2.06069e-46 2.07364e-46 2.08689e-46 2.10018e-46 2.11323e-46 2.12578e-46 2.13753e-46 2.1482e-46 2.15752e-46 2.16525e-46 2.17119e-46 2.17516e-46 2.17707e-46 2.17685e-46 2.1745e-46 2.17007e-46 2.16366e-46 2.15541e-46 2.14544e-46 2.13392e-46 2.12095e-46 2.10664e-46 2.09102e-46 2.07403e-46 2.05556e-46 2.03539e-46 2.01321e-46 1.98862e-46 1.96113e-46 1.93021e-46 1.89525e-46 1.85567e-46 1.81089e-46 1.76042e-46 1.70386e-46 1.64096e-46 1.57168e-46 1.49617e-46 1.41485e-46 1.32836e-46 1.23756e-46 1.14354e-46 1.04753e-46 9.5088e-47 8.54973e-47 7.61183e-47 6.70796e-47 5.84961e-47 5.04639e-47 4.30576e-47 3.6328e-47 3.03023e-47 2.49852e-47 2.03613e-47 1.6398e-47 1.30496e-47 1.02611e-47 7.97163e-48 6.11844e-48 4.63936e-48 3.47528e-48 2.57175e-48 1.88008e-48 1.35779e-48 9.68736e-49 6.82818e-49 4.75492e-49 3.27142e-49 2.22382e-49 1.49367e-49 9.91338e-50 6.50168e-50 4.21395e-50 2.69923e-50 1.70885e-50 1.06933e-50 6.61442e-51 4.04458e-51 2.44505e-51 1.46139e-51 8.63659e-52 5.04716e-52 2.91685e-52 1.66715e-52 9.42464e-53 5.27006e-53 2.91512e-53 1.59518e-53 8.63491e-54 4.62207e-54 2.44235e-54 1.26518e-54 6.24267e-55 2.55389e-55 0 
0 9.5116e-72 3.07077e-71 8.91618e-71 2.54172e-70 7.1814e-70 2.01318e-69 5.59997e-69 1.54562e-68 4.23264e-68 1.14999e-67 3.09974e-67 8.28871e-67 2.19864e-66 5.78505e-66 1.50981e-65 3.90817e-65 1.00332e-64 2.55447e-64 6.44955e-64 1.61473e-63 4.00859e-63 9.86684e-63 2.40787e-62 5.82549e-62 1.39717e-61 3.3217e-61 7.82775e-61 1.82832e-60 4.23232e-60 9.70936e-60 2.20729e-59 4.97227e-59 1.10982e-58 2.45425e-58 5.37684e-58 1.16694e-57 2.5087e-57 5.34198e-57 1.12662e-56 2.35309e-56 4.86698e-56 9.96795e-56 2.02137e-55 4.05831e-55 8.06628e-55 1.58707e-54 3.09085e-54 5.95783e-54 1.13655e-53 2.14561e-53 4.00806e-53 7.40809e-53 1.35466e-52 2.45061e-52 4.38531e-52 7.762e-52 1.35881e-51 2.35245e-51 4.02738e-51 6.81758e-51 1.14106e-50 1.8881e-50 3.08846e-50 4.99375e-50 7.9808e-50 1.26057e-49 1.9677e-49 3.03522e-49 4.62625e-49 6.96702e-49 1.03661e-48 1.52374e-48 2.21262e-48 3.1738e-48 4.49684e-48 6.29322e-48 8.69878e-48 1.18754e-47 1.60117e-47 2.13212e-47 2.80394e-47 3.64173e-47 4.67127e-47 5.91777e-47 7.40443e-47 9.15073e-47 1.11706e-46 1.34707e-46 1.60487e-46 1.88918e-46 2.19764e-46 2.52672e-46 2.87186e-46 3.22754e-46 3.58751e-46 3.94508e-46 4.29344e-46 4.62598e-46 4.93663e-46 5.22019e-46 5.47254e-46 5.69083e-46 5.87352e-46 6.02041e-46 6.13249e-46 6.21177e-46 6.26108e-46 6.28376e-46 6.28347e-46 6.2639e-46 6.22862e-46 6.1809e-46 6.12364e-46 6.05938e-46 5.99027e-46 5.91812e-46 5.84452e-46 5.7709e-46 5.69858e-46 5.62883e-46 5.56293e-46 5.50212e-46 5.44757e-46 5.40039e-46 5.36149e-46 5.33157e-46 5.31102e-46 5.29993e-46 5.29801e-46 5.30464e-46 5.31887e-46 5.33949e-46 5.3651e-46 5.3942e-46 5.42525e-46 5.45681e-46 5.48755e-46 5.51636e-46 5.54238e-46 5.56502e-46 5.58398e-46 5.59921e-46 5.6109e-46 5.61948e-46 5.62551e-46 5.62967e-46 5.63272e-46 5.63544e-46 5.6386e-46 5.64292e-46 5.64906e-46 5.65756e-46 5.66888e-46 5.68333e-46 5.70112e-46 5.72232e-46 5.74689e-46 5.77467e-46 5.80537e-46 5.83862e-46 5.87393e-46 5.91074e-46 5.94838e-46 5.98615e-46 6.02328e-46 6.05896e-46 6.09239e-46 6.12276e-46 6.14932e-46 6.17139e-46 6.18838e-46 6.19983e-46 6.20544e-46 6.20507e-46 6.19871e-46 6.18655e-46 6.16888e-46 6.14608e-46 6.11861e-46 6.08692e-46 6.05138e-46 6.01229e-46 5.96976e-46 5.92369e-46 5.87376e-46 5.81933e-46 5.75953e-46 5.69318e-46 5.61885e-46 5.53493e-46 5.43965e-46 5.3312e-46 5.20784e-46 5.068e-46 4.91043e-46 4.73429e-46 4.53933e-46 4.32592e-46 4.09511e-46 3.84871e-46 3.58919e-46 3.31964e-46 3.04366e-46 2.76517e-46 2.48823e-46 2.2169e-46 1.95497e-46 1.70586e-46 1.47245e-46 1.25697e-46 1.06099e-46 8.85345e-47 7.30241e-47 5.95266e-47 4.7951e-47 3.81668e-47 3.00152e-47 2.33204e-47 1.79e-47 1.3573e-47 1.0167e-47 7.52322e-48 5.49928e-48 3.97103e-48 2.83272e-48 1.99626e-48 1.38981e-48 9.55951e-49 6.49645e-49 4.36211e-49 2.89414e-49 1.89744e-49 1.22933e-49 7.87128e-50 4.98114e-50 3.11564e-50 1.92633e-50 1.17736e-50 7.11401e-51 4.24989e-51 2.51034e-51 1.46626e-51 8.46933e-52 4.83812e-52 2.73356e-52 1.5277e-52 8.44569e-53 4.61894e-53 2.49886e-53 1.33682e-53 7.05988e-54 3.65514e-54 1.80266e-54 7.37218e-55 0 
0 2.65665e-71 8.57939e-71 2.49198e-70 7.10657e-70 2.00869e-69 5.63327e-69 1.56762e-68 4.3285e-68 1.18586e-67 3.22331e-67 8.69211e-67 2.32531e-66 6.1709e-66 1.62444e-65 4.24153e-65 1.09846e-64 2.8214e-64 7.1869e-64 1.81547e-63 4.54763e-63 1.12955e-62 2.78177e-62 6.79221e-62 1.64418e-61 3.94556e-61 9.38563e-61 2.21303e-60 5.17196e-60 1.19795e-59 2.74984e-59 6.25515e-59 1.40993e-58 3.14893e-58 6.96787e-58 1.5275e-57 3.31725e-57 7.13607e-57 1.52052e-56 3.20885e-56 6.70651e-56 1.38805e-55 2.84471e-55 5.77253e-55 1.15973e-54 2.30662e-54 4.5414e-54 8.85043e-54 1.70713e-53 3.25881e-53 6.15617e-53 1.15076e-52 2.12835e-52 3.89453e-52 7.04989e-52 1.26238e-51 2.23584e-51 3.91653e-51 6.78474e-51 1.16226e-50 1.96867e-50 3.29692e-50 5.45851e-50 8.93378e-50 1.4453e-49 2.31104e-49 3.65217e-49 5.70368e-49 8.80217e-49 1.34222e-48 2.02221e-48 3.01002e-48 4.42615e-48 6.42941e-48 9.22531e-48 1.30747e-47 1.83024e-47 2.53039e-47 3.45509e-47 4.65918e-47 6.20484e-47 8.16049e-47 1.0599e-46 1.35952e-46 1.72218e-46 2.15458e-46 2.6623e-46 3.24926e-46 3.91726e-46 4.6654e-46 5.48981e-46 6.38333e-46 7.33551e-46 8.33278e-46 9.35887e-46 1.03954e-45 1.14229e-45 1.24212e-45 1.33713e-45 1.42556e-45 1.50591e-45 1.57702e-45 1.63808e-45 1.6887e-45 1.72886e-45 1.75891e-45 1.77946e-45 1.7914e-45 1.79574e-45 1.79358e-45 1.78601e-45 1.77411e-45 1.75882e-45 1.74101e-45 1.7214e-45 1.7006e-45 1.67913e-45 1.65743e-45 1.63588e-45 1.61484e-45 1.59465e-45 1.57566e-45 1.55819e-45 1.54256e-45 1.52907e-45 1.51795e-45 1.50941e-45 1.50354e-45 1.50035e-45 1.49976e-45 1.50159e-45 1.50557e-45 1.51135e-45 1.51854e-45 1.52672e-45 1.53544e-45 1.5443e-45 1.55293e-45 1.56102e-45 1.56831e-45 1.57465e-45 1.57994e-45 1.58419e-45 1.58744e-45 1.58981e-45 1.59147e-45 1.5926e-45 1.59343e-45 1.59416e-45 1.59502e-45 1.59621e-45 1.59792e-45 1.60029e-45 1.60346e-45 1.60752e-45 1.61252e-45 1.61849e-45 1.6254e-45 1.63323e-45 1.64188e-45 1.65124e-45 1.6612e-45 1.67157e-45 1.68218e-45 1.69283e-45 1.70331e-45 1.71338e-45 1.72281e-45 1.73139e-45 1.7389e-45 1.74515e-45 1.74998e-45 1.75325e-45 1.75489e-45 1.75486e-45 1.75316e-45 1.74985e-45 1.74503e-45 1.7388e-45 1.73131e-45 1.72269e-45 1.71305e-45 1.7025e-45 1.69106e-45 1.67873e-45 1.66541e-45 1.65094e-45 1.63504e-45 1.61739e-45 1.59757e-45 1.5751e-45 1.54945e-45 1.52009e-45 1.48648e-45 1.44814e-45 1.40468e-45 1.35581e-45 1.30144e-45 1.24163e-45 1.17666e-45 1.10703e-45 1.03343e-45 9.56743e-46 8.78009e-46 7.98359e-46 7.18981e-46 6.41056e-46 5.65703e-46 4.93928e-46 4.26585e-46 3.64344e-46 3.07674e-46 2.56841e-46 2.11916e-46 1.72796e-46 1.39227e-46 1.10838e-46 8.71777e-47 6.77394e-47 5.19971e-47 3.9428e-47 2.95331e-47 2.18519e-47 1.59715e-47 1.15314e-47 8.22444e-48 5.79469e-48 4.03335e-48 2.77353e-48 1.88428e-48 1.26482e-48 8.38887e-49 5.49786e-49 3.56062e-49 2.27891e-49 1.44154e-49 9.01263e-50 5.56973e-50 3.40256e-50 2.05493e-50 1.22699e-50 7.24388e-51 4.22883e-51 2.44131e-51 1.39383e-51 7.87082e-52 4.39626e-52 2.42902e-52 1.32766e-52 7.17849e-53 3.83804e-53 2.02574e-53 1.04821e-53 5.16709e-54 2.11239e-54 0 
0 7.36244e-71 2.37834e-70 6.91072e-70 1.97155e-69 5.57486e-69 1.56408e-68 4.35432e-68 1.20282e-67 3.29674e-67 8.96491e-67 2.41861e-66 6.47322e-66 1.71866e-65 4.52637e-65 1.18244e-64 3.06377e-64 7.87325e-64 2.00656e-63 5.07136e-63 1.27101e-62 3.15863e-62 7.78309e-62 1.90144e-61 4.60535e-61 1.10578e-60 2.63193e-60 6.20945e-60 1.45204e-59 3.36528e-59 7.72957e-59 1.75935e-58 3.96812e-58 8.86792e-58 1.96352e-57 4.30722e-57 9.36e-57 2.01484e-56 4.29597e-56 9.07209e-56 1.89734e-55 3.92957e-55 8.05887e-55 1.63643e-54 3.28992e-54 6.5479e-54 1.29007e-53 2.51586e-53 4.85609e-53 9.27637e-53 1.75358e-52 3.28016e-52 6.07085e-52 1.11161e-51 2.01359e-51 3.608e-51 6.39444e-51 1.12084e-50 1.94291e-50 3.33038e-50 5.64458e-50 9.45864e-50 1.56693e-49 2.56603e-49 4.15362e-49 6.64524e-49 1.05071e-48 1.64174e-48 2.53482e-48 3.86705e-48 5.82869e-48 8.67945e-48 1.27678e-47 1.8553e-47 2.66296e-47 3.77523e-47 5.28605e-47 7.30986e-47 9.98304e-47 1.34641e-46 1.79328e-46 2.35866e-46 3.06357e-46 3.92952e-46 4.97744e-46 6.22647e-46 7.69244e-46 9.3864e-46 1.1313e-45 1.34693e-45 1.58433e-45 1.84137e-45 2.11496e-45 2.40112e-45 2.69506e-45 2.99144e-45 3.28455e-45 3.56861e-45 3.83808e-45 4.0879e-45 4.31382e-45 4.51254e-45 4.68187e-45 4.82076e-45 4.92932e-45 5.00866e-45 5.06076e-45 5.08827e-45 5.09425e-45 5.08196e-45 5.05469e-45 5.01553e-45 4.96732e-45 4.9125e-45 4.85319e-45 4.7911e-45 4.72769e-45 4.66414e-45 4.6015e-45 4.54073e-45 4.48272e-45 4.42836e-45 4.37853e-45 4.33407e-45 4.29576e-45 4.26425e-45 4.24003e-45 4.22336e-45 4.21426e-45 4.21247e-45 4.21748e-45 4.22852e-45 4.24462e-45 4.26465e-45 4.28743e-45 4.31174e-45 4.33643e-45 4.36046e-45 4.38295e-45 4.40323e-45 4.42083e-45 4.43551e-45 4.44726e-45 4.45622e-45 4.46273e-45 4.46724e-45 4.47029e-45 4.47249e-45 4.47444e-45 4.47676e-45 4.48002e-45 4.48472e-45 4.49131e-45 4.50012e-45 4.51143e-45 4.52537e-45 4.54202e-45 4.56134e-45 4.5832e-45 4.60737e-45 4.63356e-45 4.66138e-45 4.6904e-45 4.72009e-45 4.74989e-45 4.7792e-45 4.80739e-45 4.83382e-45 4.85787e-45 4.87894e-45 4.8965e-45 4.91009e-45 4.91938e-45 4.92413e-45 4.92426e-45 4.91979e-45 4.9109e-45 4.89786e-45 4.88103e-45 4.86081e-45 4.8376e-45 4.81179e-45 4.78364e-45 4.75331e-45 4.72076e-45 4.68575e-45 4.6478e-45 4.6062e-45 4.55997e-45 4.50789e-45 4.44858e-45 4.38047e-45 4.30195e-45 4.21144e-45 4.10745e-45 3.98875e-45 3.85446e-45 3.70416e-45 3.53796e-45 3.35658e-45 3.16136e-45 2.95425e-45 2.73775e-45 2.5148e-45 2.28868e-45 2.06282e-45 1.84064e-45 1.62541e-45 1.42009e-45 1.22717e-45 1.04866e-45 8.85952e-46 7.3987e-46 6.10666e-46 4.98077e-46 4.01409e-46 3.19622e-46 2.51426e-46 1.95383e-46 1.49984e-46 1.13729e-46 8.51847e-47 6.30245e-47 4.60594e-47 3.325e-47 2.37103e-47 1.67021e-47 1.16226e-47 7.99006e-48 5.42669e-48 3.64147e-48 2.41435e-48 1.58172e-48 1.02398e-48 6.55105e-49 4.1421e-49 2.58851e-49 1.59893e-49 9.76311e-50 5.89335e-50 3.51708e-50 2.07531e-50 1.21087e-50 6.98651e-51 3.98662e-51 2.24992e-51 1.25597e-51 6.93543e-52 3.78854e-52 2.0472e-52 1.0939e-52 5.77025e-53 2.9841e-53 1.47026e-53 6.00846e-54 0 
0 2.02442e-70 6.54165e-70 1.90151e-69 5.42695e-69 1.53518e-68 4.3089e-68 1.20008e-67 3.31651e-67 9.094e-67 2.47407e-66 6.67775e-66 1.78809e-65 4.74968e-65 1.25151e-64 3.27099e-64 8.47955e-64 2.18018e-63 5.55925e-63 1.40578e-62 3.52513e-62 8.76523e-62 2.16101e-61 5.2824e-61 1.28015e-60 3.07552e-60 7.32455e-60 1.72909e-59 4.04582e-59 9.38244e-59 2.15635e-58 4.91123e-58 1.10841e-57 2.47865e-57 5.49177e-57 1.20548e-56 2.62135e-56 5.64653e-56 1.20475e-55 2.54587e-55 5.3281e-55 1.10426e-54 2.26621e-54 4.60498e-54 9.26441e-54 1.84518e-53 3.63793e-53 7.09958e-53 1.37131e-52 2.6214e-52 4.95888e-52 9.28229e-52 1.71914e-51 3.15002e-51 5.70989e-51 1.0238e-50 1.8157e-50 3.18472e-50 5.52412e-50 9.47507e-50 1.60691e-49 2.69437e-49 4.46623e-49 7.31824e-49 1.18527e-48 1.89733e-48 3.00155e-48 4.69236e-48 7.24849e-48 1.10633e-47 1.66827e-47 2.48525e-47 3.65732e-47 5.31641e-47 7.63331e-47 1.08249e-46 1.51609e-46 2.09703e-46 2.86447e-46 3.86392e-46 5.14694e-46 6.77016e-46 8.79379e-46 1.12793e-45 1.42864e-45 1.78694e-45 2.20731e-45 2.69281e-45 3.24465e-45 3.86181e-45 4.54071e-45 5.27502e-45 6.05568e-45 6.87102e-45 7.70718e-45 8.54861e-45 9.37883e-45 1.01812e-44 1.09398e-44 1.16403e-44 1.22705e-44 1.28213e-44 1.32866e-44 1.36639e-44 1.39539e-44 1.416e-44 1.42885e-44 1.43473e-44 1.43456e-44 1.4293e-44 1.41992e-44 1.40732e-44 1.39232e-44 1.37563e-44 1.35785e-44 1.33947e-44 1.32087e-44 1.3024e-44 1.28432e-44 1.26689e-44 1.25033e-44 1.23489e-44 1.22078e-44 1.20822e-44 1.19742e-44 1.18855e-44 1.18174e-44 1.17704e-44 1.17446e-44 1.17393e-44 1.17528e-44 1.17832e-44 1.18276e-44 1.1883e-44 1.1946e-44 1.20132e-44 1.20814e-44 1.21478e-44 1.22099e-44 1.22658e-44 1.23143e-44 1.23547e-44 1.23869e-44 1.24114e-44 1.24291e-44 1.24412e-44 1.24494e-44 1.24552e-44 1.24603e-44 1.24665e-44 1.24753e-44 1.24882e-44 1.25063e-44 1.25306e-44 1.25619e-44 1.26005e-44 1.26466e-44 1.27001e-44 1.27607e-44 1.28277e-44 1.29003e-44 1.29775e-44 1.3058e-44 1.31404e-44 1.32232e-44 1.33045e-44 1.33828e-44 1.34563e-44 1.35232e-44 1.35818e-44 1.36308e-44 1.36688e-44 1.36949e-44 1.37086e-44 1.37096e-44 1.3698e-44 1.36743e-44 1.36395e-44 1.35945e-44 1.35405e-44 1.34788e-44 1.34105e-44 1.33364e-44 1.3257e-44 1.31724e-44 1.30818e-44 1.2984e-44 1.2877e-44 1.27579e-44 1.26233e-44 1.24691e-44 1.22909e-44 1.20837e-44 1.18428e-44 1.15639e-44 1.12431e-44 1.08776e-44 1.04659e-44 1.00081e-44 9.50589e-45 8.96296e-45 8.38468e-45 7.77808e-45 7.15152e-45 6.51432e-45 5.87634e-45 5.24746e-45 4.63715e-45 4.05398e-45 3.50529e-45 2.99693e-45 2.5331e-45 2.11627e-45 1.7473e-45 1.42556e-45 1.14915e-45 9.1518e-46 7.20012e-46 5.5957e-46 4.29568e-46 3.25732e-46 2.43968e-46 1.80488e-46 1.31888e-46 9.5195e-47 6.78705e-47 4.77991e-47 3.3254e-47 2.28545e-47 1.55176e-47 1.04094e-47 6.8991e-48 4.51811e-48 2.92377e-48 1.86974e-48 1.18168e-48 7.3812e-49 4.55719e-49 2.78126e-49 1.67801e-49 1.00089e-49 5.90273e-50 3.44214e-50 1.98494e-50 1.13199e-50 6.38489e-51 3.56213e-51 1.96583e-51 1.07321e-51 5.79572e-52 3.095e-52 1.63161e-52 8.43305e-53 4.15281e-53 1.69649e-53 0 
0 5.5227e-70 1.78514e-69 5.191e-69 1.48212e-68 4.19438e-68 1.17777e-67 3.28165e-67 9.07307e-67 2.48899e-66 6.77454e-66 1.82937e-65 4.90079e-65 1.30242e-64 3.43351e-64 8.97842e-64 2.32871e-63 5.99049e-63 1.52832e-62 3.8668e-62 9.70169e-62 2.41367e-61 5.95411e-61 1.45626e-60 3.53121e-60 8.48866e-60 2.02284e-59 4.7782e-59 1.11872e-58 2.59599e-58 5.9701e-58 1.3606e-57 3.07271e-57 6.87582e-57 1.52444e-56 3.34848e-56 7.28634e-56 1.57059e-55 3.35332e-55 7.09117e-55 1.48511e-54 3.08008e-54 6.32556e-54 1.28628e-53 2.58961e-53 5.16137e-53 1.01834e-52 1.98876e-52 3.84412e-52 7.35366e-52 1.39208e-51 2.60762e-51 4.83289e-51 8.86166e-51 1.60743e-50 2.88417e-50 5.11851e-50 8.98388e-50 1.55935e-49 2.67638e-49 4.54189e-49 7.62034e-49 1.26393e-48 2.07229e-48 3.35826e-48 5.37878e-48 8.51377e-48 1.33167e-47 2.05811e-47 3.14277e-47 4.74126e-47 7.06613e-47 1.04027e-46 1.51274e-46 2.17274e-46 3.08212e-46 4.3179e-46 5.97387e-46 8.16173e-46 1.10113e-45 1.46694e-45 1.92973e-45 2.50663e-45 3.21508e-45 4.072e-45 5.09272e-45 6.28976e-45 7.67155e-45 9.24121e-45 1.09954e-44 1.29233e-44 1.50064e-44 1.72183e-44 1.95252e-44 2.18869e-44 2.42588e-44 2.65935e-44 2.88434e-44 3.09633e-44 3.29123e-44 3.46565e-44 3.61704e-44 3.74377e-44 3.8452e-44 3.92164e-44 3.97425e-44 4.00487e-44 4.01588e-44 4.01e-44 3.99006e-44 3.95888e-44 3.91908e-44 3.87304e-44 3.82276e-44 3.76994e-44 3.71594e-44 3.66184e-44 3.60853e-44 3.55672e-44 3.50706e-44 3.46015e-44 3.41657e-44 3.3769e-44 3.3417e-44 3.31149e-44 3.2867e-44 3.26766e-44 3.25453e-44 3.24728e-44 3.24569e-44 3.24934e-44 3.25762e-44 3.26978e-44 3.28496e-44 3.30223e-44 3.32066e-44 3.33937e-44 3.35755e-44 3.37455e-44 3.38985e-44 3.40309e-44 3.4141e-44 3.42287e-44 3.42951e-44 3.43428e-44 3.43753e-44 3.43969e-44 3.4412e-44 3.44254e-44 3.44417e-44 3.44654e-44 3.45003e-44 3.45496e-44 3.46161e-44 3.47018e-44 3.48077e-44 3.49344e-44 3.50815e-44 3.52481e-44 3.54325e-44 3.56323e-44 3.58447e-44 3.60663e-44 3.62932e-44 3.6521e-44 3.67453e-44 3.69611e-44 3.71636e-44 3.73481e-44 3.751e-44 3.76454e-44 3.77509e-44 3.7824e-44 3.7863e-44 3.78674e-44 3.78378e-44 3.77757e-44 3.76836e-44 3.75646e-44 3.74222e-44 3.72601e-44 3.70816e-44 3.68893e-44 3.66848e-44 3.64683e-44 3.62381e-44 3.59908e-44 3.57207e-44 3.54198e-44 3.50783e-44 3.46845e-44 3.42251e-44 3.36861e-44 3.30536e-44 3.23142e-44 3.14564e-44 3.04714e-44 2.93541e-44 2.81039e-44 2.67251e-44 2.52274e-44 2.36254e-44 2.19389e-44 2.01913e-44 1.8409e-44 1.66202e-44 1.48532e-44 1.3135e-44 1.14906e-44 9.94124e-45 8.50395e-45 7.1911e-45 6.01019e-45 4.96402e-45 4.05114e-45 3.26642e-45 2.60184e-45 2.04725e-45 1.5912e-45 1.22157e-45 9.26292e-46 6.93749e-46 5.13194e-46 3.74963e-46 2.70601e-46 1.92892e-46 1.35818e-46 9.44651e-47 6.49049e-47 4.4055e-47 2.95425e-47 1.95731e-47 1.28131e-47 8.28828e-48 5.29804e-48 3.34685e-48 2.08959e-48 1.2895e-48 7.86585e-49 4.7432e-49 2.82769e-49 1.66671e-49 9.71388e-50 5.59839e-50 3.19085e-50 1.7987e-50 1.0029e-50 5.53131e-51 3.01786e-51 1.62875e-51 8.69239e-52 4.57961e-52 2.3656e-52 1.16432e-52 4.75464e-53 0 