# vtk DataFile Version 3.0
Gray-Scott Simulation Output
ASCII
DATASET STRUCTURED_POINTS
DIMENSIONS 256 256 1
SPACING 1.0 1.0 1.0
ORIGIN 0 0 0
POINT_DATA 65536
SCALARS u double
LOOKUP_TABLE default
0 0 0 0 0 0 0 0 0 0 0 0 0 0 0 0 0 0 0 0 0 0 0 0 0 0 0 0 0 0 0 0 0 0 0 0 0 0 0 0 0 0 0 0 0 0 0 0 0 0 0 0 0 0 0 0 0 0 0 0 0 0 0 0 0 0 0 0 0 0 0 0 0 0 0 0 0 0 0 0 0 0 0 0 0 0 0 0 0 0 0 0 0 0 0 0 0 0 0 0 0 0 0 0 0 0 0 0 0 0 0 0 0 0 0 0 0 0 0 0 0 0 0 0 0 0 0 0 0 0 0 0 0 0 0 0 0 0 0 0 0 0 0 0 0 0 0 0 0 0 0 0 0 0 0 0 0 0 0 0 0 0 0 0 0 0 0 0 0 0 0 0 0 0 0 0 0 0 0 0 0 0 0 0 0 0 0 0 0 0 0 0 0 0 0 0 0 0 0 0 0 0 0 0 0 0 0 0 0 0 0 0 0 0 0 0 0 0 0 0 0 0 0 0 0 0 0 0 0 0 0 0 0 0 0 0 0 0 0 0 0 0 0 0 0 0 0 0 0 0 0 0 0 0 0 0 
0 1.99995e-73 6.41142e-73 1.84583e-72 5.21557e-72 1.46057e-71 4.05821e-71 1.11887e-70 3.06084e-70 8.30809e-70 2.23738e-69 5.97768e-69 1.58438e-68 4.1658e-68 1.08649e-67 2.81076e-67 7.21214e-67 1.83538e-66 4.63219e-66 1.15937e-65 2.87744e-65 7.08138e-65 1.72795e-64 4.18045e-64 1.00269e-63 2.38417e-63 5.61964e-63 1.31297e-62 3.04054e-62 6.97859e-62 1.58738e-61 3.57817e-61 7.99249e-61 1.76895e-60 3.87912e-60 8.42763e-60 1.81386e-59 3.86724e-59 8.16705e-59 1.70831e-58 3.53896e-58 7.2604e-58 1.475e-57 2.96714e-57 5.90972e-57 1.16533e-56 2.27482e-56 4.39576e-56 8.40766e-56 1.59161e-55 2.98187e-55 5.52835e-55 1.0142e-54 1.84095e-54 3.3061e-54 5.87368e-54 1.03227e-53 1.79445e-53 3.08525e-53 5.24612e-53 8.82147e-53 1.46678e-52 2.41146e-52 3.9197e-52 6.29871e-52 1.00057e-51 1.57111e-51 2.43837e-51 3.74026e-51 5.67001e-51 8.49411e-51 1.25742e-50 1.83927e-50 2.65823e-50 3.79579e-50 5.35494e-50 7.46334e-50 1.0276e-49 1.39771e-49 1.87804e-49 2.49276e-49 3.26845e-49 4.23345e-49 5.4168e-49 6.84699e-49 8.5503e-49 1.0549e-48 1.28594e-48 1.54897e-48 1.84386e-48 2.16931e-48 2.52287e-48 2.90079e-48 3.29816e-48 3.70904e-48 4.12664e-48 4.54361e-48 4.95244e-48 5.34574e-48 5.71667e-48 6.05922e-48 6.3685e-48 6.64095e-48 6.87439e-48 7.06807e-48 7.22255e-48 7.33953e-48 7.42163e-48 7.47212e-48 7.4947e-48 7.49318e-48 7.47134e-48 7.43276e-48 7.38069e-48 7.31806e-48 7.24744e-48 7.17113e-48 7.09117e-48 7.00949e-48 6.9279e-48 6.84818e-48 6.77205e-48 6.70121e-48 6.63728e-48 6.5817e-48 6.53571e-48 6.50025e-48 6.47588e-48 6.46275e-48 6.4606e-48 6.4687e-48 6.48596e-48 6.51097e-48 6.54207e-48 6.57746e-48 6.61531e-48 6.65389e-48 6.6916e-48 6.72709e-48 6.75932e-48 6.78755e-48 6.81138e-48 6.83076e-48 6.84589e-48 6.85724e-48 6.86549e-48 6.87145e-48 6.87603e-48 6.88015e-48 6.88476e-48 6.89073e-48 6.89885e-48 6.9098e-48 6.92411e-48 6.9422e-48 6.96431e-48 6.99054e-48 7.02085e-48 7.05502e-48 7.09272e-48 7.13349e-48 7.17673e-48 7.22174e-48 7.26773e-48 7.31382e-48 7.35906e-48 7.40249e-48 7.44311e-48 7.47995e-48 7.51207e-48 7.53864e-48 7.55893e-48 7.57238e-48 7.57858e-48 7.5773e-48 7.56851e-48 7.55233e-48 7.52905e-48 7.49904e-48 7.46272e-48 7.42052e-48 7.37278e-48 7.31973e-48 7.26139e-48 7.19757e-48 7.12779e-48 7.0513e-48 6.96702e-48 6.87365e-48 6.76961e-48 6.65316e-48 6.52246e-48 6.3757e-48 6.21117e-48 6.02741e-48 5.82338e-48 5.59851e-48 5.3529e-48 5.08732e-48 4.80331e-48 4.50317e-48 4.18993e-48 3.86722e-48 3.53915e-48 3.21015e-48 2.88477e-48 2.56743e-48 2.26228e-48 1.973e-48 1.70266e-48 1.45359e-48 1.22737e-48 1.02484e-48 8.46077e-49 6.90518e-49 5.57059e-49 4.44165e-49 3.50001e-49 2.72551e-49 2.09727e-49 1.59467e-49 1.19809e-49 8.89408e-50 6.52381e-50 4.72816e-50 3.38592e-50 2.39587e-50 1.67519e-50 1.15742e-50 7.90234e-51 5.33189e-51 3.55537e-51 2.34308e-51 1.5262e-51 9.82614e-52 6.25354e-52 3.9343e-52 2.447e-52 1.50472e-52 9.14874e-53 5.50021e-53 3.26995e-53 1.92255e-53 1.11794e-53 6.42979e-54 3.658e-54 2.05869e-54 1.14621e-54 6.31374e-55 3.44059e-55 1.85407e-55 9.86264e-56 5.1419e-56 2.55162e-56 1.04818e-56 0 
0 6.40055e-73 2.05233e-72 5.91021e-72 1.67046e-71 4.67934e-71 1.30055e-70 3.58677e-70 9.81526e-70 2.66502e-69 7.17923e-69 1.91873e-68 5.08729e-68 1.33805e-67 3.49102e-67 9.03445e-67 2.31899e-66 5.90362e-66 1.49053e-65 3.73197e-65 9.26594e-65 2.28124e-64 5.56872e-64 1.34779e-63 3.234e-63 7.6929e-63 1.81402e-62 4.24007e-62 9.82325e-62 2.2556e-61 5.13293e-61 1.15755e-60 2.58676e-60 5.72779e-60 1.25662e-59 2.73136e-59 5.8814e-59 1.25453e-58 2.65065e-58 5.54706e-58 1.14969e-57 2.35981e-57 4.79646e-57 9.65338e-57 1.92363e-56 3.79504e-56 7.41191e-56 1.43295e-55 2.74212e-55 5.19353e-55 9.7348e-55 1.8057e-54 3.31426e-54 6.01886e-54 1.08142e-53 1.92219e-53 3.37974e-53 5.8779e-53 1.01107e-52 1.71998e-52 2.89345e-52 4.81313e-52 7.91635e-52 1.28729e-51 2.06941e-51 3.28858e-51 5.1657e-51 8.02008e-51 1.23063e-50 1.86617e-50 2.79651e-50 4.14098e-50 6.05878e-50 8.7587e-50 1.25097e-49 1.76516e-49 2.4606e-49 3.38842e-49 4.6094e-49 6.19401e-49 8.22197e-49 1.07809e-48 1.39639e-48 1.78666e-48 2.25825e-48 2.81975e-48 3.47842e-48 4.23949e-48 5.10556e-48 6.07596e-48 7.14629e-48 8.30814e-48 9.54898e-48 1.08524e-47 1.21985e-47 1.35648e-47 1.49269e-47 1.62599e-47 1.75396e-47 1.87433e-47 1.98516e-47 2.08485e-47 2.17227e-47 2.24674e-47 2.30805e-47 2.35645e-47 2.39252e-47 2.4172e-47 2.43159e-47 2.43696e-47 2.43458e-47 2.42573e-47 2.4116e-47 2.39326e-47 2.37167e-47 2.34767e-47 2.32201e-47 2.29533e-47 2.26825e-47 2.24133e-47 2.21514e-47 2.1902e-47 2.16705e-47 2.1462e-47 2.1281e-47 2.11314e-47 2.1016e-47 2.09366e-47 2.08937e-47 2.08863e-47 2.0912e-47 2.09673e-47 2.10476e-47 2.11475e-47 2.12612e-47 2.13829e-47 2.15069e-47 2.1628e-47 2.1742e-47 2.18454e-47 2.19359e-47 2.20123e-47 2.20742e-47 2.21225e-47 2.21586e-47 2.21848e-47 2.22036e-47 2.22179e-47 2.22309e-47 2.22454e-47 2.22643e-47 2.22903e-47 2.23253e-47 2.23712e-47 2.24294e-47 2.25005e-47 2.25849e-47 2.26824e-47 2.27925e-47 2.29139e-47 2.30452e-47 2.31845e-47 2.33296e-47 2.34778e-47 2.36264e-47 2.37723e-47 2.39123e-47 2.40434e-47 2.41622e-47 2.4266e-47 2.43519e-47 2.44177e-47 2.44615e-47 2.44821e-47 2.44787e-47 2.44513e-47 2.44004e-47 2.4327e-47 2.42322e-47 2.41177e-47 2.39848e-47 2.38347e-47 2.36682e-47 2.34856e-47 2.32863e-47 2.30687e-47 2.28303e-47 2.25679e-47 2.22769e-47 2.19523e-47 2.15881e-47 2.11782e-47 2.07164e-47 2.01968e-47 1.96145e-47 1.89655e-47 1.82479e-47 1.74614e-47 1.66084e-47 1.56936e-47 1.47243e-47 1.37103e-47 1.26633e-47 1.15969e-47 1.05257e-47 9.46446e-48 8.42805e-48 7.43021e-48 6.48319e-48 5.59727e-48 4.78034e-48 4.03782e-48 3.37256e-48 2.78502e-48 2.27348e-48 1.83443e-48 1.46288e-48 1.15288e-48 8.9784e-49 6.90919e-49 5.25356e-49 3.947e-49 2.92996e-49 2.14898e-49 1.55733e-49 1.1151e-49 7.88934e-50 5.51529e-50 3.80989e-50 2.60069e-50 1.75435e-50 1.16953e-50 7.7055e-51 5.01769e-51 3.22959e-51 2.05473e-51 1.29228e-51 8.03484e-52 4.93909e-52 3.0019e-52 1.80407e-52 1.07214e-52 6.3011e-53 3.66257e-53 2.10566e-53 1.19745e-53 6.73633e-54 3.749e-54 2.0642e-54 1.12437e-54 6.05644e-55 3.22033e-55 1.67824e-55 8.3251e-56 3.41898e-56 0 
0 1.83889e-72 5.89799e-72 1.69904e-71 4.80386e-71 1.34615e-70 3.7428e-70 1.03261e-69 2.82683e-69 7.67833e-69 2.06927e-68 5.53258e-68 1.4675e-67 3.86142e-67 1.00789e-66 2.60945e-66 6.70094e-66 1.70667e-65 4.31091e-65 1.07986e-64 2.6824e-64 6.60711e-64 1.61364e-63 3.90738e-63 9.38042e-63 2.2325e-62 5.26704e-62 1.23175e-61 2.85518e-61 6.5595e-61 1.49351e-60 3.36993e-60 7.53488e-60 1.66936e-59 3.66447e-59 7.96953e-59 1.71706e-58 3.66469e-58 7.7475e-58 1.62228e-57 3.36435e-57 6.90965e-57 1.40527e-56 2.82994e-56 5.64262e-56 1.11388e-55 2.17677e-55 4.21091e-55 8.06294e-55 1.52803e-54 2.86587e-54 5.31906e-54 9.76862e-54 1.77508e-53 3.19119e-53 5.67552e-53 9.98485e-53 1.7375e-52 2.99037e-52 5.08986e-52 8.56708e-52 1.42585e-51 2.34635e-51 3.81734e-51 6.13964e-51 9.76132e-51 1.534e-50 2.38267e-50 3.65758e-50 5.54864e-50 8.31794e-50 1.23212e-49 1.80334e-49 2.60773e-49 3.72553e-49 5.25815e-49 7.33132e-49 1.00976e-48 1.37383e-48 1.84634e-48 2.45104e-48 3.21402e-48 4.16298e-48 5.3263e-48 6.73166e-48 8.40445e-48 1.0366e-47 1.26314e-47 1.52078e-47 1.80927e-47 2.12722e-47 2.47204e-47 2.83991e-47 3.22586e-47 3.62388e-47 4.02719e-47 4.42849e-47 4.82033e-47 5.19548e-47 5.54726e-47 5.86989e-47 6.15875e-47 6.41056e-47 6.62346e-47 6.79701e-47 6.93207e-47 7.03063e-47 7.09556e-47 7.13036e-47 7.13888e-47 7.12507e-47 7.09277e-47 7.04558e-47 6.98672e-47 6.91904e-47 6.845e-47 6.76673e-47 6.68613e-47 6.60489e-47 6.52463e-47 6.44688e-47 6.37316e-47 6.30494e-47 6.24364e-47 6.1905e-47 6.14662e-47 6.11279e-47 6.0895e-47 6.07683e-47 6.0745e-47 6.08182e-47 6.09772e-47 6.12088e-47 6.14972e-47 6.18257e-47 6.21771e-47 6.2535e-47 6.28846e-47 6.32133e-47 6.35114e-47 6.37719e-47 6.39914e-47 6.41692e-47 6.43074e-47 6.44104e-47 6.44846e-47 6.45375e-47 6.45777e-47 6.4614e-47 6.4655e-47 6.47088e-47 6.4783e-47 6.48837e-47 6.50161e-47 6.51839e-47 6.53894e-47 6.56335e-47 6.59157e-47 6.62342e-47 6.65858e-47 6.69661e-47 6.73696e-47 6.77898e-47 6.82193e-47 6.86499e-47 6.90728e-47 6.9479e-47 6.98591e-47 7.02042e-47 7.05056e-47 7.07555e-47 7.09474e-47 7.1076e-47 7.11377e-47 7.11307e-47 7.10549e-47 7.09119e-47 7.07048e-47 7.04375e-47 7.01146e-47 6.97406e-47 6.93194e-47 6.88537e-47 6.83442e-47 6.77896e-47 6.71856e-47 6.65251e-47 6.57981e-47 6.49914e-47 6.40896e-47 6.3075e-47 6.19287e-47 6.06317e-47 5.91657e-47 5.75148e-47 5.56664e-47 5.36131e-47 5.13534e-47 4.88929e-47 4.62446e-47 4.34293e-47 4.04754e-47 3.74173e-47 3.42948e-47 3.11512e-47 2.80311e-47 2.49786e-47 2.20352e-47 1.92378e-47 1.66177e-47 1.4199e-47 1.19986e-47 1.00254e-47 8.28155e-48 6.7623e-48 5.4576e-48 4.35302e-48 3.43105e-48 2.67229e-48 2.05654e-48 1.56377e-48 1.17484e-48 8.72071e-49 6.39568e-49 4.63433e-49 3.31785e-49 2.34696e-49 1.64039e-49 1.1329e-49 7.7314e-50 5.21392e-50 3.47481e-50 2.28865e-50 1.48982e-50 9.58565e-51 6.0963e-51 3.83262e-51 2.38198e-51 1.46361e-51 8.89164e-52 5.34126e-52 3.17277e-52 1.8638e-52 1.08283e-52 6.22227e-53 3.53671e-53 1.98859e-53 1.10615e-53 6.08729e-54 3.31403e-54 1.78416e-54 9.48181e-55 4.93887e-55 2.44891e-55 1.00541e-55 0 
0 5.18469e-72 1.66339e-71 4.79343e-71 1.3558e-70 3.80071e-70 1.05715e-69 2.91775e-69 7.99075e-69 2.17137e-68 5.85418e-68 1.5659e-67 4.15531e-67 1.09387e-66 2.85643e-66 7.39878e-66 1.90086e-65 4.84363e-65 1.22405e-64 3.06768e-64 7.62398e-64 1.87884e-63 4.59101e-63 1.11228e-62 2.67164e-62 6.3618e-62 1.50173e-61 3.51388e-61 8.14967e-61 1.87337e-60 4.26786e-60 9.63546e-60 2.15567e-59 4.77873e-59 1.04962e-58 2.28411e-58 4.92417e-58 1.05161e-57 2.22457e-57 4.66101e-57 9.67225e-57 1.98772e-56 4.04513e-56 8.15132e-56 1.62633e-55 3.21249e-55 6.28196e-55 1.21601e-54 2.32987e-54 4.41821e-54 8.29177e-54 1.53993e-53 2.82991e-53 5.14551e-53 9.2562e-53 1.64722e-52 2.89969e-52 5.04889e-52 8.69464e-52 1.48076e-51 2.49378e-51 4.15279e-51 6.83748e-51 1.113e-50 1.79101e-50 2.84892e-50 4.47925e-50 6.96054e-50 1.06897e-49 1.62233e-49 2.43299e-49 3.60528e-49 5.27853e-49 7.63547e-49 1.09116e-48 1.54044e-48 2.1483e-48 2.95949e-48 4.02718e-48 5.41297e-48 7.18644e-48 9.42396e-48 1.22066e-47 1.56171e-47 1.97363e-47 2.46376e-47 3.03826e-47 3.70144e-47 4.45524e-47 5.29868e-47 6.22748e-47 7.23379e-47 8.30618e-47 9.42979e-47 1.05868e-46 1.17571e-46 1.29191e-46 1.40511e-46 1.51316e-46 1.61414e-46 1.70636e-46 1.7885e-46 1.85964e-46 1.91928e-46 1.96734e-46 2.00412e-46 2.03027e-46 2.04667e-46 2.05439e-46 2.05461e-46 2.04851e-46 2.03724e-46 2.02186e-46 2.00333e-46 1.98247e-46 1.95999e-46 1.93651e-46 1.91255e-46 1.88858e-46 1.86504e-46 1.84235e-46 1.82093e-46 1.80117e-46 1.78345e-46 1.76812e-46 1.75548e-46 1.74574e-46 1.73902e-46 1.73535e-46 1.73463e-46 1.73667e-46 1.74115e-46 1.74771e-46 1.75588e-46 1.76519e-46 1.77515e-46 1.78529e-46 1.79519e-46 1.8045e-46 1.81292e-46 1.82029e-46 1.82648e-46 1.83148e-46 1.83536e-46 1.83824e-46 1.8403e-46 1.84176e-46 1.84287e-46 1.84386e-46 1.84499e-46 1.84649e-46 1.84857e-46 1.85142e-46 1.85516e-46 1.85991e-46 1.86574e-46 1.87267e-46 1.88069e-46 1.88974e-46 1.89973e-46 1.91054e-46 1.92201e-46 1.93396e-46 1.94618e-46 1.95843e-46 1.97046e-46 1.98203e-46 1.99285e-46 2.00269e-46 2.01128e-46 2.01842e-46 2.02392e-46 2.02763e-46 2.02945e-46 2.02933e-46 2.02729e-46 2.02336e-46 2.01764e-46 2.01026e-46 2.00135e-46 1.99106e-46 1.97951e-46 1.96677e-46 1.95289e-46 1.93783e-46 1.92147e-46 1.90362e-46 1.88398e-46 1.86217e-46 1.83773e-46 1.81015e-46 1.77884e-46 1.74323e-46 1.70278e-46 1.65696e-46 1.6054e-46 1.54782e-46 1.48416e-46 1.41453e-46 1.3393e-46 1.25903e-46 1.17453e-46 1.08679e-46 9.96977e-47 9.06342e-47 8.16196e-47 7.27839e-47 6.42498e-47 5.61274e-47 4.85098e-47 4.14699e-47 3.50587e-47 2.93047e-47 2.42154e-47 1.97787e-47 1.59665e-47 1.27374e-47 1.00411e-47 7.82132e-48 6.01949e-48 4.57725e-48 3.43877e-48 2.55242e-48 1.87175e-48 1.35611e-48 9.70725e-49 6.86539e-49 4.79747e-49 3.31247e-49 2.25997e-49 1.52363e-49 1.0151e-49 6.68361e-50 4.34921e-50 2.79725e-50 1.77829e-50 1.11751e-50 6.94234e-51 4.2638e-51 2.58913e-51 1.55456e-51 9.22977e-52 5.4192e-52 3.14682e-52 1.80732e-52 1.02673e-52 5.76991e-53 3.20776e-53 1.7643e-53 9.59985e-54 5.16538e-54 2.74359e-54 1.42833e-54 7.07899e-55 2.90534e-55 0 
0 1.44871e-71 4.64925e-71 1.34027e-70 3.79232e-70 1.06352e-69 2.95931e-69 8.17108e-69 2.23872e-68 6.08596e-68 1.64153e-67 4.39275e-67 1.16619e-66 3.07135e-66 8.02398e-66 2.07936e-65 5.34476e-65 1.36258e-64 3.44511e-64 8.63841e-64 2.14797e-63 5.29615e-63 1.29482e-62 3.13867e-62 7.54306e-62 1.79717e-61 4.24466e-61 9.93766e-61 2.30614e-60 5.30422e-60 1.2091e-59 2.7314e-59 6.11444e-59 1.35628e-58 2.98084e-58 6.4907e-58 1.40016e-57 2.99208e-57 6.33346e-57 1.32787e-56 2.75728e-56 5.6701e-56 1.15465e-55 2.32825e-55 4.64831e-55 9.18785e-55 1.79785e-54 3.48241e-54 6.67667e-54 1.26695e-53 2.37928e-53 4.42162e-53 8.13082e-53 1.47934e-52 2.66287e-52 4.74181e-52 8.35245e-52 1.45521e-51 2.50752e-51 4.27303e-51 7.20052e-51 1.19976e-50 1.97648e-50 3.21904e-50 5.18276e-50 8.2483e-50 1.29749e-49 2.01719e-49 3.0993e-49 4.70572e-49 7.05998e-49 1.04657e-48 1.53284e-48 2.21801e-48 3.17062e-48 4.47734e-48 6.24557e-48 8.60565e-48 1.17123e-47 1.57447e-47 2.09051e-47 2.74155e-47 3.55111e-47 4.54316e-47 5.74102e-47 7.1659e-47 8.83535e-47 1.07615e-46 1.29496e-46 1.5396e-46 1.80879e-46 2.10015e-46 2.41028e-46 2.73478e-46 3.06841e-46 3.40526e-46 3.73901e-46 4.06328e-46 4.3719e-46 4.65925e-46 4.92052e-46 5.15195e-46 5.35097e-46 5.51626e-46 5.64775e-46 5.74646e-46 5.81442e-46 5.85437e-46 5.86955e-46 5.86348e-46 5.83969e-46 5.80161e-46 5.75235e-46 5.6947e-46 5.63106e-46 5.56344e-46 5.49357e-46 5.4229e-46 5.35273e-46 5.28424e-46 5.21857e-46 5.15681e-46 5.10003e-46 5.04925e-46 5.00541e-46 4.96928e-46 4.94145e-46 4.92224e-46 4.91168e-46 4.9095e-46 4.91511e-46 4.92765e-46 4.94603e-46 4.96897e-46 4.99512e-46 5.02309e-46 5.05156e-46 5.07935e-46 5.10545e-46 5.12907e-46 5.14967e-46 5.16698e-46 5.18094e-46 5.19172e-46 5.1997e-46 5.20537e-46 5.20936e-46 5.21235e-46 5.21504e-46 5.21812e-46 5.22227e-46 5.22806e-46 5.236e-46 5.24649e-46 5.25984e-46 5.27622e-46 5.29572e-46 5.31828e-46 5.34375e-46 5.37189e-46 5.40235e-46 5.43468e-46 5.46836e-46 5.5028e-46 5.53734e-46 5.57129e-46 5.60391e-46 5.63447e-46 5.66225e-46 5.68655e-46 5.70677e-46 5.72239e-46 5.73299e-46 5.73831e-46 5.73823e-46 5.73277e-46 5.7221e-46 5.70651e-46 5.68636e-46 5.66209e-46 5.6341e-46 5.60279e-46 5.56842e-46 5.53111e-46 5.49079e-46 5.44715e-46 5.39963e-46 5.34739e-46 5.28932e-46 5.22409e-46 5.15015e-46 5.06581e-46 4.96933e-46 4.85903e-46 4.73335e-46 4.59106e-46 4.4313e-46 4.25372e-46 4.05858e-46 3.84682e-46 3.62001e-46 3.38043e-46 3.13091e-46 2.87476e-46 2.61564e-46 2.35736e-46 2.10371e-46 1.85831e-46 1.62439e-46 1.40472e-46 1.20147e-46 1.01618e-46 8.49735e-47 7.02401e-47 5.73875e-47 4.63373e-47 3.69731e-47 2.91507e-47 2.27087e-47 1.74782e-47 1.32908e-47 9.98481e-48 7.41075e-48 5.43397e-48 3.93648e-48 2.81735e-48 1.99217e-48 1.3918e-48 9.60747e-49 6.55298e-49 4.41659e-49 2.94154e-49 1.93609e-49 1.2594e-49 8.09683e-50 5.14527e-50 3.232e-50 2.00693e-50 1.23204e-50 7.4778e-51 4.48762e-51 2.66306e-51 1.5628e-51 9.0701e-52 5.20647e-52 2.95617e-52 1.66036e-52 9.22555e-53 5.0713e-53 2.75781e-53 1.48304e-53 7.87276e-54 4.09638e-54 2.02925e-54 8.32552e-55 0 
0 4.01629e-71 1.2893e-70 3.71812e-70 1.05246e-69 2.95271e-69 8.21945e-69 2.27045e-68 6.22323e-68 1.69252e-67 4.56714e-67 1.22272e-66 3.24757e-66 8.55694e-66 2.23658e-65 5.79875e-65 1.49123e-64 3.80358e-64 9.62179e-64 2.41385e-63 6.00524e-63 1.48147e-62 3.62389e-62 8.78922e-62 2.11346e-61 5.03824e-61 1.19064e-60 2.78917e-60 6.47636e-60 1.49048e-59 3.3996e-59 7.68446e-59 1.72128e-58 3.82047e-58 8.4019e-58 1.83065e-57 3.95159e-57 8.44978e-57 1.78977e-56 3.75487e-56 7.80203e-56 1.60548e-55 3.27156e-55 6.60121e-55 1.3188e-54 2.6085e-54 5.10766e-54 9.90013e-54 1.89938e-53 3.60665e-53 6.77766e-53 1.26039e-52 2.31924e-52 4.22246e-52 7.60554e-52 1.3552e-51 2.38864e-51 4.16424e-51 7.17999e-51 1.22428e-50 2.06427e-50 3.44153e-50 5.67281e-50 9.24429e-50 1.48916e-49 2.37122e-49 3.7319e-49 5.80475e-49 8.92282e-49 1.35536e-48 2.03429e-48 3.01682e-48 4.42014e-48 6.39806e-48 9.14878e-48 1.29229e-47 1.80309e-47 2.48497e-47 3.38263e-47 4.54786e-47 6.03907e-47 7.92026e-47 1.02592e-46 1.31249e-46 1.65843e-46 2.06979e-46 2.55156e-46 3.10714e-46 3.73786e-46 4.44258e-46 5.21729e-46 6.05499e-46 6.94562e-46 7.87624e-46 8.83149e-46 9.79412e-46 1.07458e-45 1.1668e-45 1.2543e-45 1.33545e-45 1.40889e-45 1.47356e-45 1.52875e-45 1.57411e-45 1.60968e-45 1.63579e-45 1.65307e-45 1.66235e-45 1.66462e-45 1.66092e-45 1.65231e-45 1.63977e-45 1.62423e-45 1.6065e-45 1.58725e-45 1.56707e-45 1.54643e-45 1.52574e-45 1.50535e-45 1.48556e-45 1.46668e-45 1.449e-45 1.4328e-45 1.41836e-45 1.40591e-45 1.39566e-45 1.38777e-45 1.38232e-45 1.3793e-45 1.37865e-45 1.38018e-45 1.38365e-45 1.38877e-45 1.39515e-45 1.40244e-45 1.41023e-45 1.41816e-45 1.4259e-45 1.43316e-45 1.43973e-45 1.44545e-45 1.45024e-45 1.4541e-45 1.45708e-45 1.45927e-45 1.46081e-45 1.46189e-45 1.46269e-45 1.46341e-45 1.46425e-45 1.46538e-45 1.46698e-45 1.46918e-45 1.4721e-45 1.47582e-45 1.48039e-45 1.48583e-45 1.49213e-45 1.49924e-45 1.50711e-45 1.51562e-45 1.52466e-45 1.53407e-45 1.54371e-45 1.55337e-45 1.56287e-45 1.572e-45 1.58056e-45 1.58834e-45 1.59516e-45 1.60084e-45 1.60524e-45 1.60825e-45 1.60979e-45 1.60984e-45 1.60841e-45 1.60554e-45 1.60134e-45 1.59589e-45 1.58935e-45 1.58183e-45 1.57344e-45 1.56428e-45 1.55438e-45 1.54374e-45 1.53226e-45 1.5198e-45 1.50612e-45 1.49089e-45 1.47373e-45 1.45419e-45 1.43177e-45 1.40595e-45 1.37622e-45 1.34211e-45 1.30324e-45 1.25932e-45 1.21023e-45 1.15601e-45 1.0969e-45 1.03332e-45 9.65923e-46 8.95497e-46 8.22995e-46 7.49463e-46 6.76006e-46 6.03723e-46 5.33666e-46 4.66783e-46 4.03889e-46 3.45626e-46 2.92456e-46 2.44651e-46 2.02301e-46 1.65332e-46 1.33528e-46 1.06564e-46 8.40305e-47 6.54673e-47 5.03911e-47 3.83189e-47 2.87867e-47 2.13642e-47 1.56639e-47 1.13457e-47 8.11883e-48 5.73976e-48 4.00909e-48 2.76673e-48 1.88658e-48 1.27113e-48 8.46314e-49 5.56836e-49 3.62078e-49 2.32692e-49 1.47806e-49 9.28038e-50 5.76011e-50 3.53441e-50 2.14416e-50 1.28612e-50 7.62827e-51 4.47425e-51 2.59536e-51 1.48899e-51 8.44963e-52 4.74315e-52 2.63396e-52 1.44706e-52 7.86465e-53 4.22685e-53 2.24254e-53 1.1662e-53 5.77428e-54 2.36821e-54 0 
0 1.10481e-70 3.54774e-70 1.02349e-69 2.89827e-69 8.13447e-69 2.26533e-68 6.26017e-68 1.71663e-67 4.67074e-67 1.26093e-66 3.37732e-66 8.97441e-66 2.36577e-65 6.18654e-65 1.60476e-64 4.12893e-64 1.05367e-63 2.66682e-63 6.69383e-63 1.6662e-62 4.11269e-62 1.00658e-61 2.44267e-61 5.87697e-61 1.40181e-60 3.3147e-60 7.76953e-60 1.80514e-59 4.15689e-59 9.48722e-59 2.14582e-58 4.80957e-58 1.06818e-57 2.35064e-57 5.12502e-57 1.107e-56 2.36868e-56 5.02049e-56 1.05398e-55 2.19149e-55 4.51265e-55 9.20188e-55 1.85799e-54 3.71446e-54 7.35199e-54 1.44057e-53 2.79416e-53 5.36441e-53 1.01932e-52 1.91683e-52 3.56701e-52 6.56807e-52 1.1966e-51 2.15677e-51 3.84559e-51 6.78254e-51 1.1832e-50 2.04136e-50 3.48293e-50 5.87621e-50 9.8026e-50 1.61674e-49 2.63611e-49 4.24885e-49 6.76913e-49 1.06589e-48 1.65875e-48 2.55097e-48 3.87663e-48 5.821e-48 8.63589e-48 1.26577e-47 1.83281e-47 2.62162e-47 3.70416e-47 5.1696e-47 7.12614e-47 9.70212e-47 1.30461e-46 1.73257e-46 2.27242e-46 2.94356e-46 3.7657e-46 4.75791e-46 5.93738e-46 7.31816e-46 8.90966e-46 1.07153e-45 1.27313e-45 1.49456e-45 1.73375e-45 1.98775e-45 2.25278e-45 2.52438e-45 2.79755e-45 3.067e-45 3.32739e-45 3.57362e-45 3.80109e-45 4.00592e-45 4.18515e-45 4.33684e-45 4.46012e-45 4.55519e-45 4.62316e-45 4.66597e-45 4.68613e-45 4.68656e-45 4.67036e-45 4.64061e-45 4.60024e-45 4.5519e-45 4.49792e-45 4.44024e-45 4.3805e-45 4.32e-45 4.25985e-45 4.20098e-45 4.14421e-45 4.09032e-45 4.04007e-45 3.99419e-45 3.95338e-45 3.91828e-45 3.88943e-45 3.86722e-45 3.85185e-45 3.84331e-45 3.84135e-45 3.84549e-45 3.85505e-45 3.86915e-45 3.8868e-45 3.90693e-45 3.92847e-45 3.95038e-45 3.97175e-45 3.99179e-45 4.0099e-45 4.02566e-45 4.03885e-45 4.04944e-45 4.05757e-45 4.06353e-45 4.06771e-45 4.0706e-45 4.07273e-45 4.07464e-45 4.07688e-45 4.07995e-45 4.08432e-45 4.09037e-45 4.09842e-45 4.10869e-45 4.12133e-45 4.13639e-45 4.15384e-45 4.17357e-45 4.19537e-45 4.21898e-45 4.24405e-45 4.27017e-45 4.2969e-45 4.32373e-45 4.3501e-45 4.37547e-45 4.39925e-45 4.42089e-45 4.43987e-45 4.45571e-45 4.46801e-45 4.47649e-45 4.48093e-45 4.48127e-45 4.47756e-45 4.46996e-45 4.45872e-45 4.44418e-45 4.42673e-45 4.40674e-45 4.38455e-45 4.36045e-45 4.33456e-45 4.30687e-45 4.27717e-45 4.24503e-45 4.20977e-45 4.1705e-45 4.12609e-45 4.07523e-45 4.01645e-45 3.94824e-45 3.86906e-45 3.77751e-45 3.67239e-45 3.55281e-45 3.41832e-45 3.26894e-45 3.10528e-45 2.9285e-45 2.74036e-45 2.54309e-45 2.3394e-45 2.13227e-45 1.92486e-45 1.72036e-45 1.52179e-45 1.33192e-45 1.15312e-45 9.87286e-46 8.35787e-46 6.99448e-46 5.7857e-46 4.72978e-46 3.82088e-46 3.04989e-46 2.40531e-46 1.87414e-46 1.44263e-46 1.09703e-46 8.24111e-47 6.11579e-47 4.48353e-47 3.24709e-47 2.32317e-47 1.64208e-47 1.14669e-47 7.91138e-48 5.39305e-48 3.63255e-48 2.41773e-48 1.59018e-48 1.0336e-48 6.63982e-49 4.21583e-49 2.64584e-49 1.64145e-49 1.00672e-49 6.10425e-50 3.65963e-50 2.16947e-50 1.27179e-50 7.37323e-51 4.22777e-51 2.39779e-51 1.34522e-51 7.46592e-52 4.09926e-52 2.2266e-52 1.19597e-52 6.34147e-53 3.29594e-53 1.63113e-53 6.68735e-54 0 
0 3.01552e-70 9.68635e-70 2.79548e-69 7.91932e-69 2.22361e-68 6.19506e-68 1.71272e-67 4.69861e-67 1.27901e-66 3.45444e-66 9.25678e-66 2.46093e-65 6.49046e-65 1.69811e-64 4.40702e-64 1.13447e-63 2.89659e-63 7.33504e-63 1.84212e-62 4.58781e-62 1.13304e-61 2.77465e-61 6.73711e-61 1.62186e-60 3.87084e-60 9.1584e-60 2.14799e-59 4.9936e-59 1.15064e-58 2.62774e-58 5.94721e-58 1.33384e-57 2.96433e-57 6.52756e-57 1.42413e-56 3.07814e-56 6.59085e-56 1.3979e-55 2.93671e-55 6.11034e-55 1.25909e-54 2.56924e-54 5.19126e-54 1.03856e-53 2.05704e-53 4.03346e-53 7.82889e-53 1.50409e-52 2.86001e-52 5.38198e-52 1.00222e-51 1.84671e-51 3.36672e-51 6.07233e-51 1.08344e-50 1.91216e-50 3.33791e-50 5.76258e-50 9.83825e-50 1.66089e-49 2.77235e-49 4.57517e-49 7.46414e-49 1.20374e-48 1.9188e-48 3.02301e-48 4.70681e-48 7.24201e-48 1.10105e-47 1.65401e-47 2.45486e-47 3.59949e-47 5.21382e-47 7.46017e-47 1.05437e-46 1.47189e-46 2.02941e-46 2.76352e-46 3.71658e-46 4.93628e-46 6.47482e-46 8.38732e-46 1.07297e-45 1.35559e-45 1.69145e-45 2.08446e-45 2.53722e-45 3.05058e-45 3.62333e-45 4.25186e-45 4.9301e-45 5.64946e-45 6.39899e-45 7.16581e-45 7.93552e-45 8.69296e-45 9.42287e-45 1.01107e-44 1.07435e-44 1.13104e-44 1.1803e-44 1.22162e-44 1.25478e-44 1.27988e-44 1.29726e-44 1.30753e-44 1.31142e-44 1.30981e-44 1.3036e-44 1.2937e-44 1.28094e-44 1.2661e-44 1.24984e-44 1.23271e-44 1.21516e-44 1.19756e-44 1.1802e-44 1.16332e-44 1.14715e-44 1.13188e-44 1.11769e-44 1.10479e-44 1.09334e-44 1.08352e-44 1.07545e-44 1.06925e-44 1.06495e-44 1.06255e-44 1.06197e-44 1.06308e-44 1.06568e-44 1.06954e-44 1.07438e-44 1.0799e-44 1.0858e-44 1.09181e-44 1.09767e-44 1.10315e-44 1.10811e-44 1.11241e-44 1.11601e-44 1.11889e-44 1.12109e-44 1.1227e-44 1.12382e-44 1.12459e-44 1.12515e-44 1.12565e-44 1.12624e-44 1.12707e-44 1.12825e-44 1.1299e-44 1.13211e-44 1.13492e-44 1.13839e-44 1.14253e-44 1.14733e-44 1.15275e-44 1.15875e-44 1.16524e-44 1.17214e-44 1.17933e-44 1.18669e-44 1.19408e-44 1.20134e-44 1.20833e-44 1.21489e-44 1.22086e-44 1.2261e-44 1.23048e-44 1.2339e-44 1.23627e-44 1.23754e-44 1.23769e-44 1.23674e-44 1.23475e-44 1.23178e-44 1.22794e-44 1.22334e-44 1.2181e-44 1.2123e-44 1.20605e-44 1.19938e-44 1.19229e-44 1.18474e-44 1.1766e-44 1.16769e-44 1.15775e-44 1.14646e-44 1.13344e-44 1.11826e-44 1.10049e-44 1.07967e-44 1.05538e-44 1.02725e-44 9.95006e-45 9.58495e-45 9.17699e-45 8.72762e-45 8.23999e-45 7.71885e-45 7.17051e-45 6.60251e-45 6.02335e-45 5.44201e-45 4.86759e-45 4.30881e-45 3.77365e-45 3.26897e-45 2.80031e-45 2.3717e-45 1.98561e-45 1.64303e-45 1.34356e-45 1.08563e-45 8.66735e-46 6.83653e-46 5.32729e-46 4.10093e-46 3.11853e-46 2.34263e-46 1.73837e-46 1.27427e-46 9.22731e-47 6.60064e-47 4.66454e-47 3.25655e-47 2.2462e-47 1.53075e-47 1.03072e-47 6.85784e-48 4.50884e-48 2.92956e-48 1.88116e-48 1.19389e-48 7.48941e-49 4.64417e-49 2.84692e-49 1.72537e-49 1.03386e-49 6.12562e-50 3.58903e-50 2.07959e-50 1.19175e-50 6.75517e-51 3.7876e-51 2.10087e-51 1.15282e-51 6.25801e-52 3.35934e-52 1.78018e-52 9.24705e-53 4.57395e-53 1.87456e-53 0 
0 8.16627e-70 2.62397e-69 7.57572e-69 2.14701e-68 6.03099e-68 1.68098e-67 4.64939e-67 1.27607e-66 3.47516e-66 9.39034e-66 2.51751e-65 6.69608e-65 1.76689e-64 4.62505e-64 1.20093e-63 3.09309e-63 7.9016e-63 2.002e-62 5.03055e-62 1.25356e-61 3.09762e-61 7.59e-61 1.844e-60 4.44178e-60 1.06074e-59 2.51123e-59 5.89339e-59 1.37094e-58 3.16097e-58 7.22338e-58 1.63589e-57 3.67137e-57 8.16466e-57 1.79909e-56 3.92775e-56 8.49533e-56 1.82025e-55 3.86338e-55 8.12187e-55 1.69108e-54 3.48709e-54 7.12063e-54 1.43978e-53 2.88246e-53 5.71331e-53 1.12107e-52 2.17754e-52 4.1865e-52 7.96624e-52 1.50016e-51 2.79555e-51 5.15473e-51 9.40412e-51 1.69733e-50 3.03052e-50 5.35216e-50 9.34906e-50 1.61509e-49 2.75917e-49 4.66097e-49 7.78492e-49 1.28551e-48 2.09848e-48 3.38614e-48 5.40062e-48 8.51305e-48 1.32616e-47 2.04147e-47 3.10523e-47 4.66678e-47 6.92925e-47 1.01641e-46 1.47279e-46 2.10803e-46 2.98026e-46 4.16148e-46 5.73909e-46 7.81665e-46 1.0514e-45 1.39661e-45 1.83204e-45 2.37325e-45 3.03601e-45 3.83546e-45 4.78518e-45 5.89606e-45 7.17517e-45 8.62459e-45 1.02405e-44 1.20122e-44 1.3922e-44 1.59451e-44 1.805e-44 2.01997e-44 2.23532e-44 2.44671e-44 2.64984e-44 2.84058e-44 3.01529e-44 3.1709e-44 3.30518e-44 3.4167e-44 3.50497e-44 3.57034e-44 3.61393e-44 3.63751e-44 3.6433e-44 3.63383e-44 3.61176e-44 3.57969e-44 3.54006e-44 3.49506e-44 3.44656e-44 3.39613e-44 3.345e-44 3.29418e-44 3.24444e-44 3.19641e-44 3.15066e-44 3.10767e-44 3.06793e-44 3.03189e-44 3.00002e-44 2.97273e-44 2.95035e-44 2.93314e-44 2.9212e-44 2.91449e-44 2.91279e-44 2.91573e-44 2.92278e-44 2.93325e-44 2.9464e-44 2.96141e-44 2.97747e-44 2.99381e-44 3.00972e-44 3.02463e-44 3.03807e-44 3.04973e-44 3.05946e-44 3.06724e-44 3.07317e-44 3.07746e-44 3.08044e-44 3.08245e-44 3.0839e-44 3.0852e-44 3.08676e-44 3.08896e-44 3.09215e-44 3.09661e-44 3.10259e-44 3.11025e-44 3.11969e-44 3.13097e-44 3.14405e-44 3.15884e-44 3.17521e-44 3.19294e-44 3.21177e-44 3.23141e-44 3.25151e-44 3.27169e-44 3.29155e-44 3.31066e-44 3.32859e-44 3.34494e-44 3.3593e-44 3.37132e-44 3.38073e-44 3.3873e-44 3.39089e-44 3.39148e-44 3.38912e-44 3.38396e-44 3.37622e-44 3.3662e-44 3.35422e-44 3.34062e-44 3.32571e-44 3.30972e-44 3.29282e-44 3.27502e-44 3.25619e-44 3.23601e-44 3.21397e-44 3.18934e-44 3.16121e-44 3.12851e-44 3.09e-44 3.0444e-44 2.99038e-44 2.92669e-44 2.85224e-44 2.76617e-44 2.66798e-44 2.55754e-44 2.43519e-44 2.30176e-44 2.15855e-44 2.00729e-44 1.8501e-44 1.68935e-44 1.5276e-44 1.36743e-44 1.21133e-44 1.06157e-44 9.20138e-45 7.88635e-45 6.68237e-45 5.59681e-45 4.63279e-45 3.7895e-45 3.06275e-45 2.44567e-45 1.92933e-45 1.50355e-45 1.15749e-45 8.80211e-46 6.61189e-46 4.90604e-46 3.59588e-46 2.60348e-46 1.86203e-46 1.31558e-46 9.18249e-47 6.3319e-47 4.31378e-47 2.90372e-47 1.93129e-47 1.26929e-47 8.24376e-48 5.29134e-48 3.35671e-48 2.10473e-48 1.30452e-48 7.99287e-49 4.84159e-49 2.89962e-49 1.71709e-49 1.00549e-49 5.82284e-50 3.33499e-50 1.88926e-50 1.05867e-50 5.8686e-51 3.21836e-51 1.746e-51 9.36686e-52 4.96065e-52 2.57529e-52 1.27318e-52 5.21597e-53 0 