# vtk DataFile Version 3.0
Gray-Scott Simulation Output
ASCII
DATASET STRUCTURED_POINTS
DIMENSIONS 256 256 1
SPACING 1.0 1.0 1.0
ORIGIN 0 0 0
POINT_DATA 65536
SCALARS u double
LOOKUP_TABLE default
0 0 0 0 0 0 0 0 0 0 0 0 0 0 0 0 0 0 0 0 0 0 0 0 0 0 0 0 0 0 0 0 0 0 0 0 0 0 0 0 0 0 0 0 0 0 0 0 0 0 0 0 0 0 0 0 0 0 0 0 0 0 0 0 0 0 0 0 0 0 0 0 0 0 0 0 0 0 0 0 0 0 0 0 0 0 0 0 0 0 0 0 0 0 0 0 0 0 0 0 0 0 0 0 0 0 0 0 0 0 0 0 0 0 0 0 0 0 0 0 0 0 0 0 0 0 0 0 0 0 0 0 0 0 0 0 0 0 0 0 0 0 0 0 0 0 0 0 0 0 0 0 0 0 0 0 0 0 0 0 0 0 0 0 0 0 0 0 0 0 0 0 0 0 0 0 0 0 0 0 0 0 0 0 0 0 0 0 0 0 0 0 0 0 0 0 0 0 0 0 0 0 0 0 0 0 0 0 0 0 0 0 0 0 0 0 0 0 0 0 0 0 0 0 0 0 0 0 0 0 0 0 0 0 0 0 0 0 0 0 0 0 0 0 0 0 0 0 0 0 0 0 0 0 0 0 
0 3.4756e-78 1.26661e-77 4.24172e-77 1.39993e-76 4.57946e-76 1.48545e-75 4.77783e-75 1.52373e-74 4.818e-74 1.51035e-73 4.69372e-73 1.44596e-72 4.41538e-72 1.33637e-71 4.00868e-71 1.1917e-70 3.51069e-70 1.02483e-69 2.96425e-69 8.49473e-69 2.41173e-68 6.78299e-68 1.88971e-67 5.21462e-67 1.42518e-66 3.85746e-66 1.03393e-65 2.74412e-65 7.21114e-65 1.87612e-64 4.83215e-64 1.23199e-63 3.10904e-63 7.7654e-63 1.91948e-62 4.69513e-62 1.13637e-61 2.72124e-61 6.44686e-61 1.51087e-60 3.50238e-60 8.03011e-60 1.82079e-59 4.08264e-59 9.05157e-59 1.98412e-58 4.29967e-58 9.21049e-58 1.95016e-57 4.08088e-57 8.43908e-57 1.72445e-56 3.48159e-56 6.94438e-56 1.36829e-55 2.66296e-55 5.11862e-55 9.71627e-55 1.82122e-54 3.37053e-54 6.15834e-54 1.11075e-53 1.9775e-53 3.47473e-53 6.02543e-53 1.03105e-52 1.74081e-52 2.89981e-52 4.76535e-52 7.72485e-52 1.23515e-51 1.94783e-51 3.02938e-51 4.64616e-51 7.02666e-51 1.04783e-50 1.54063e-50 2.23333e-50 3.19184e-50 4.49728e-50 6.24702e-50 8.55479e-50 1.15495e-49 1.53725e-49 2.01729e-49 2.61013e-49 3.33011e-49 4.18985e-49 5.19918e-49 6.364e-49 7.6853e-49 9.1583e-49 1.0772e-48 1.2509e-48 1.4346e-48 1.62545e-48 1.82021e-48 2.01542e-48 2.20757e-48 2.39329e-48 2.56953e-48 2.7337e-48 2.88375e-48 3.01827e-48 3.13642e-48 3.23796e-48 3.32311e-48 3.39247e-48 3.44689e-48 3.48739e-48 3.51502e-48 3.53084e-48 3.53588e-48 3.53112e-48 3.51755e-48 3.49617e-48 3.46809e-48 3.43454e-48 3.39689e-48 3.35669e-48 3.31562e-48 3.27541e-48 3.23783e-48 3.20452e-48 3.17694e-48 3.15626e-48 3.14326e-48 3.13832e-48 3.14137e-48 3.15189e-48 3.16901e-48 3.19153e-48 3.21807e-48 3.24712e-48 3.27719e-48 3.30688e-48 3.33496e-48 3.36046e-48 3.38267e-48 3.40115e-48 3.41576e-48 3.4266e-48 3.43399e-48 3.43841e-48 3.44047e-48 3.44085e-48 3.44029e-48 3.43948e-48 3.43911e-48 3.43979e-48 3.44207e-48 3.44639e-48 3.45309e-48 3.46242e-48 3.47452e-48 3.48943e-48 3.5071e-48 3.52737e-48 3.55003e-48 3.57478e-48 3.60124e-48 3.629e-48 3.65755e-48 3.68636e-48 3.71484e-48 3.74234e-48 3.76822e-48 3.79177e-48 3.81234e-48 3.82928e-48 3.84201e-48 3.85006e-48 3.85307e-48 3.8508e-48 3.84317e-48 3.83023e-48 3.81214e-48 3.78912e-48 3.76143e-48 3.72929e-48 3.69287e-48 3.6522e-48 3.60718e-48 3.55755e-48 3.50291e-48 3.44273e-48 3.37637e-48 3.30316e-48 3.22243e-48 3.13354e-48 3.03598e-48 2.92938e-48 2.81356e-48 2.68858e-48 2.55478e-48 2.41275e-48 2.26344e-48 2.10805e-48 1.9481e-48 1.78534e-48 1.62172e-48 1.45932e-48 1.30023e-48 1.14652e-48 1.00008e-48 8.62572e-49 7.35352e-49 6.19411e-49 5.15354e-49 4.23399e-49 3.434e-49 2.7489e-49 2.1714e-49 1.69228e-49 1.30106e-49 9.86639e-50 7.37937e-50 5.44311e-50 3.95931e-50 2.84e-50 2.0088e-50 1.4011e-50 9.63651e-51 6.53574e-51 4.37126e-51 2.88317e-51 1.87545e-51 1.20319e-51 7.61348e-52 4.75202e-52 2.92583e-52 1.77717e-52 1.06501e-52 6.29726e-53 3.67422e-53 2.11558e-53 1.20222e-53 6.7432e-54 3.73351e-54 2.04069e-54 1.10126e-54 5.86801e-55 3.08764e-55 1.60449e-55 8.235e-56 4.17493e-56 2.0909e-56 1.03456e-56 5.05759e-57 2.44262e-57 1.16451e-57 5.45696e-58 2.45907e-58 9.40567e-59 0 
0 1.26434e-77 4.60835e-77 1.54357e-76 5.09536e-76 1.66713e-75 5.40884e-75 1.74008e-74 5.55061e-74 1.75548e-73 5.50434e-73 1.71098e-72 5.27214e-72 1.61029e-71 4.87495e-71 1.4627e-70 4.34945e-70 1.28167e-69 3.74243e-69 1.08277e-68 3.10381e-68 8.81453e-68 2.47982e-67 6.91075e-67 1.90759e-66 5.21514e-66 1.41201e-65 3.78589e-65 1.00513e-64 2.64223e-64 6.87665e-64 1.77177e-63 4.51885e-63 1.14079e-62 2.85036e-62 7.04824e-62 1.72468e-61 4.17589e-61 1.00038e-60 2.37091e-60 5.55862e-60 1.28908e-59 2.95675e-59 6.70706e-59 1.50451e-58 3.33703e-58 7.31795e-58 1.58651e-57 3.39999e-57 7.20199e-57 1.50774e-56 3.11931e-56 6.37683e-56 1.28802e-55 2.57023e-55 5.0665e-55 9.86478e-55 1.897e-54 3.60251e-54 6.75551e-54 1.25078e-53 2.28631e-53 4.12546e-53 7.34776e-53 1.29163e-52 2.24069e-52 3.8357e-52 6.47869e-52 1.07962e-51 1.77482e-51 2.87808e-51 4.60341e-51 7.26194e-51 1.12977e-50 1.73323e-50 2.62197e-50 3.91093e-50 5.75159e-50 8.33937e-50 1.19207e-49 1.67988e-49 2.33377e-49 3.19623e-49 4.31543e-49 5.74411e-49 7.53794e-49 9.75296e-49 1.24425e-48 1.56533e-48 1.94217e-48 2.3769e-48 2.86981e-48 3.41902e-48 4.02034e-48 4.66716e-48 5.35066e-48 6.06013e-48 6.7834e-48 7.5075e-48 8.21932e-48 8.90634e-48 9.55723e-48 1.01624e-47 1.07144e-47 1.12081e-47 1.16406e-47 1.20112e-47 1.23209e-47 1.25721e-47 1.27682e-47 1.29131e-47 1.30108e-47 1.30653e-47 1.30804e-47 1.30599e-47 1.30074e-47 1.29266e-47 1.28214e-47 1.26964e-47 1.25566e-47 1.24077e-47 1.22557e-47 1.2107e-47 1.19682e-47 1.18452e-47 1.17433e-47 1.1667e-47 1.1619e-47 1.16007e-47 1.16119e-47 1.16506e-47 1.17137e-47 1.17966e-47 1.18943e-47 1.20013e-47 1.2112e-47 1.22212e-47 1.23245e-47 1.24182e-47 1.24998e-47 1.25677e-47 1.26212e-47 1.26609e-47 1.26879e-47 1.27039e-47 1.27113e-47 1.27125e-47 1.27102e-47 1.27071e-47 1.27056e-47 1.2708e-47 1.27162e-47 1.2732e-47 1.27566e-47 1.27909e-47 1.28354e-47 1.28903e-47 1.29553e-47 1.30299e-47 1.31133e-47 1.32045e-47 1.33019e-47 1.34041e-47 1.35093e-47 1.36154e-47 1.37204e-47 1.38217e-47 1.39171e-47 1.4004e-47 1.40798e-47 1.41423e-47 1.41894e-47 1.42192e-47 1.42304e-47 1.42222e-47 1.41943e-47 1.41469e-47 1.40806e-47 1.39962e-47 1.38947e-47 1.37769e-47 1.36436e-47 1.34948e-47 1.33302e-47 1.31489e-47 1.29493e-47 1.27296e-47 1.24874e-47 1.22202e-47 1.19253e-47 1.16006e-47 1.12439e-47 1.08538e-47 1.04295e-47 9.97115e-48 9.4798e-48 8.95761e-48 8.40786e-48 7.835e-48 7.24451e-48 6.64288e-48 6.03731e-48 5.43552e-48 4.84537e-48 4.27454e-48 3.73019e-48 3.2186e-48 2.7449e-48 2.31288e-48 1.92489e-48 1.58183e-48 1.28323e-48 1.0274e-48 8.11675e-49 6.32645e-49 4.86421e-49 3.68883e-49 2.75899e-49 2.035e-49 1.48016e-49 1.06162e-49 7.50818e-50 5.23607e-50 3.60066e-50 2.44159e-50 1.63265e-50 1.0766e-50 7.00131e-51 4.49045e-51 2.84062e-51 1.77246e-51 1.09096e-51 6.62441e-52 3.96845e-52 2.34567e-52 1.36812e-52 7.87457e-53 4.47318e-53 2.50802e-53 1.38808e-53 7.58406e-54 4.09109e-54 2.17904e-54 1.14611e-54 5.95329e-55 3.05426e-55 1.54779e-55 7.74851e-56 3.83233e-56 1.87271e-56 9.04076e-57 4.30843e-57 2.01816e-57 9.09118e-58 3.47635e-58 0 
0 4.22525e-77 1.54034e-76 5.16049e-76 1.70389e-75 5.57622e-75 1.80958e-74 5.82307e-74 1.85796e-73 5.87765e-73 1.84344e-72 5.73177e-72 1.76666e-71 5.39753e-71 1.63451e-70 4.90575e-70 1.45921e-69 4.30126e-69 1.25635e-68 3.63611e-68 1.04265e-67 2.96206e-67 8.33615e-67 2.32394e-66 6.41714e-66 1.75503e-65 4.75357e-65 1.27502e-64 3.38642e-64 8.90556e-64 2.31869e-63 5.97658e-63 1.52495e-62 3.85138e-62 9.6272e-62 2.38161e-61 5.83033e-61 1.41231e-60 3.38488e-60 8.02596e-60 1.88258e-59 4.3679e-59 1.00234e-58 2.27482e-58 5.10531e-58 1.13293e-57 2.48572e-57 5.39169e-57 1.15606e-56 2.45008e-56 5.13191e-56 1.06227e-55 2.17274e-55 4.39091e-55 8.76658e-55 1.72899e-54 3.36821e-54 6.48047e-54 1.23132e-53 2.31019e-53 4.27951e-53 7.8265e-53 1.41294e-52 2.51781e-52 4.42811e-52 7.68547e-52 1.31625e-51 2.22423e-51 3.70814e-51 6.09859e-51 9.89372e-51 1.58311e-50 2.49834e-50 3.88818e-50 5.96712e-50 9.02978e-50 1.34728e-49 1.98192e-49 2.87434e-49 4.1096e-49 5.7924e-49 8.04833e-49 1.1024e-48 1.48855e-48 1.98146e-48 2.60028e-48 3.36428e-48 4.29175e-48 5.39866e-48 6.6973e-48 8.19479e-48 9.8918e-48 1.17815e-47 1.3849e-47 1.60711e-47 1.8417e-47 2.08494e-47 2.33261e-47 2.58022e-47 2.82326e-47 3.05741e-47 3.27881e-47 3.4842e-47 3.67108e-47 3.83775e-47 3.98329e-47 4.10753e-47 4.21091e-47 4.29433e-47 4.35902e-47 4.40637e-47 4.4378e-47 4.45473e-47 4.45848e-47 4.45031e-47 4.43146e-47 4.40317e-47 4.3668e-47 4.32384e-47 4.27597e-47 4.2251e-47 4.17327e-47 4.12264e-47 4.07538e-47 4.03353e-47 3.9989e-47 3.97293e-47 3.9566e-47 3.95037e-47 3.95414e-47 3.96726e-47 3.98863e-47 4.01676e-47 4.04989e-47 4.08614e-47 4.12364e-47 4.16064e-47 4.19561e-47 4.22733e-47 4.25491e-47 4.27783e-47 4.2959e-47 4.30926e-47 4.3183e-47 4.32364e-47 4.32605e-47 4.32638e-47 4.32553e-47 4.32439e-47 4.32382e-47 4.32458e-47 4.32734e-47 4.33265e-47 4.34096e-47 4.35256e-47 4.36762e-47 4.3862e-47 4.40822e-47 4.43351e-47 4.46178e-47 4.49267e-47 4.52571e-47 4.56037e-47 4.59604e-47 4.63204e-47 4.66764e-47 4.70204e-47 4.73441e-47 4.7639e-47 4.78966e-47 4.81091e-47 4.82691e-47 4.83707e-47 4.84094e-47 4.83823e-47 4.82886e-47 4.81288e-47 4.79051e-47 4.76205e-47 4.72784e-47 4.68818e-47 4.64329e-47 4.59324e-47 4.53792e-47 4.47702e-47 4.41006e-47 4.33636e-47 4.25512e-47 4.16548e-47 4.06656e-47 3.95752e-47 3.83766e-47 3.70642e-47 3.56351e-47 3.40891e-47 3.24292e-47 3.06624e-47 2.87994e-47 2.68549e-47 2.48473e-47 2.27986e-47 2.07335e-47 1.86782e-47 1.666e-47 1.47054e-47 1.28394e-47 1.10837e-47 9.45655e-48 7.97129e-48 6.63638e-48 5.45526e-48 4.42659e-48 3.54482e-48 2.80097e-48 2.18342e-48 1.6789e-48 1.27326e-48 9.52309e-49 7.02385e-49 5.10844e-49 3.66354e-49 2.59063e-49 1.80635e-49 1.24191e-49 8.41944e-50 5.62849e-50 3.7105e-50 2.41228e-50 1.54668e-50 9.78079e-51 6.10073e-51 3.75364e-51 2.27835e-51 1.36433e-51 8.0609e-52 4.69952e-52 2.70375e-52 1.53519e-52 8.60358e-53 4.75949e-53 2.59923e-53 1.40145e-53 7.46099e-54 3.92235e-54 2.03643e-54 1.04426e-54 5.28935e-55 2.64666e-55 1.30837e-55 6.3904e-56 3.08356e-56 1.46879e-56 6.87692e-57 3.09655e-57 1.18371e-57 0 
0 1.39147e-76 5.07367e-76 1.70019e-75 5.61505e-75 1.83806e-74 5.96638e-74 1.92043e-73 6.12911e-73 1.93948e-72 6.08462e-72 1.89242e-71 5.83458e-71 1.78313e-70 5.40144e-70 1.62167e-69 4.8252e-69 1.42278e-68 4.15718e-68 1.20357e-67 3.45246e-67 9.81154e-67 2.76228e-66 7.70353e-66 2.128e-65 5.82213e-65 1.57757e-64 4.23312e-64 1.12477e-63 2.95913e-63 7.70781e-63 1.9876e-62 5.07366e-62 1.28197e-61 3.20595e-61 7.93466e-61 1.94336e-60 4.70974e-60 1.12933e-59 2.67908e-59 6.28718e-59 1.45946e-58 3.35087e-58 7.60869e-58 1.70848e-57 3.79333e-57 8.32717e-57 1.80718e-56 3.87696e-56 8.22099e-56 1.7229e-55 3.56823e-55 7.30238e-55 1.47655e-54 2.94961e-54 5.82058e-54 1.13452e-53 2.18403e-53 4.15202e-53 7.79422e-53 1.44462e-52 2.64339e-52 4.77472e-52 8.51282e-52 1.49794e-51 2.60116e-51 4.45707e-51 7.53533e-51 1.25685e-50 2.06802e-50 3.35644e-50 5.37299e-50 8.48267e-50 1.32067e-49 2.02755e-49 3.06925e-49 4.5809e-49 6.74068e-49 9.77845e-49 1.3984e-48 1.97141e-48 2.73966e-48 3.75308e-48 5.06818e-48 6.74678e-48 8.85398e-48 1.14551e-47 1.4612e-47 1.83786e-47 2.27959e-47 2.78872e-47 3.36537e-47 4.00707e-47 4.7086e-47 5.46194e-47 6.25646e-47 7.07932e-47 7.91607e-47 8.75138e-47 9.56989e-47 1.0357e-46 1.10996e-46 1.17869e-46 1.24106e-46 1.2965e-46 1.34475e-46 1.38576e-46 1.41973e-46 1.44698e-46 1.46795e-46 1.48313e-46 1.49302e-46 1.49812e-46 1.49886e-46 1.49569e-46 1.48901e-46 1.47924e-46 1.46681e-46 1.45224e-46 1.43607e-46 1.41893e-46 1.40149e-46 1.38448e-46 1.36861e-46 1.35457e-46 1.34295e-46 1.33424e-46 1.32877e-46 1.32667e-46 1.32792e-46 1.33231e-46 1.33945e-46 1.34886e-46 1.35993e-46 1.37205e-46 1.38457e-46 1.39693e-46 1.4086e-46 1.41919e-46 1.42838e-46 1.43601e-46 1.44202e-46 1.44645e-46 1.44944e-46 1.45119e-46 1.45196e-46 1.45204e-46 1.45173e-46 1.45133e-46 1.45112e-46 1.45135e-46 1.45226e-46 1.45402e-46 1.45679e-46 1.46065e-46 1.46568e-46 1.47188e-46 1.47924e-46 1.48769e-46 1.49714e-46 1.50747e-46 1.51851e-46 1.5301e-46 1.54203e-46 1.55407e-46 1.56598e-46 1.57749e-46 1.58833e-46 1.5982e-46 1.60683e-46 1.61395e-46 1.61932e-46 1.62274e-46 1.62405e-46 1.62317e-46 1.62007e-46 1.61476e-46 1.60732e-46 1.59786e-46 1.5865e-46 1.57333e-46 1.55844e-46 1.54185e-46 1.52353e-46 1.50338e-46 1.48124e-46 1.45689e-46 1.43005e-46 1.40043e-46 1.36773e-46 1.33167e-46 1.29199e-46 1.24849e-46 1.20106e-46 1.14967e-46 1.09441e-46 1.03549e-46 9.73248e-47 9.0817e-47 8.40866e-47 7.72068e-47 7.02604e-47 6.33367e-47 5.6528e-47 4.99252e-47 4.36136e-47 3.76688e-47 3.21535e-47 2.71145e-47 2.2582e-47 1.85687e-47 1.50713e-47 1.20718e-47 9.54024e-48 7.43779e-48 5.7196e-48 4.33786e-48 3.2444e-48 2.39284e-48 1.74017e-48 1.24783e-48 8.82254e-49 6.15049e-49 4.22773e-49 2.86546e-49 1.91508e-49 1.26212e-49 8.2027e-50 5.25752e-50 3.32353e-50 2.07225e-50 1.27451e-50 7.73268e-51 4.62853e-51 2.73349e-51 1.59291e-51 9.16019e-52 5.1987e-52 2.91209e-52 1.61018e-52 8.78911e-53 4.73653e-53 2.52035e-53 1.32432e-53 6.87217e-54 3.52217e-54 1.78313e-54 8.91777e-55 4.40623e-55 2.15101e-55 1.0374e-55 4.93897e-56 2.31132e-56 1.04028e-56 3.97535e-57 0 
0 4.54178e-76 1.65638e-75 5.55189e-75 1.83402e-74 6.00513e-74 1.94979e-73 6.27756e-73 2.00406e-72 6.34338e-72 1.99065e-71 6.19308e-71 1.90999e-70 5.839e-70 1.76931e-69 5.3137e-69 1.58159e-68 4.6651e-68 1.36356e-67 3.94913e-67 1.13322e-66 3.22168e-66 9.07353e-66 2.53142e-65 6.99546e-65 1.9147e-64 5.19019e-64 1.39327e-63 3.70357e-63 9.74786e-63 2.54018e-62 6.55323e-62 1.67358e-61 4.23058e-61 1.05848e-60 2.62097e-60 6.42239e-60 1.55723e-59 3.73586e-59 8.86697e-59 2.08194e-58 4.83536e-58 1.11076e-57 2.5235e-57 5.66939e-57 1.25945e-56 2.76627e-56 6.00671e-56 1.28934e-55 2.73554e-55 5.73616e-55 1.18867e-54 2.43398e-54 4.92436e-54 9.84265e-54 1.9434e-53 3.79014e-53 7.30041e-53 1.38866e-52 2.60828e-52 4.83703e-52 8.85577e-52 1.60049e-51 2.85505e-51 5.0265e-51 8.73307e-51 1.49718e-50 2.53248e-50 4.2261e-50 6.95693e-50 1.12964e-49 1.80913e-49 2.85739e-49 4.45048e-49 6.83515e-49 1.03506e-48 1.54534e-48 2.27462e-48 3.30061e-48 4.72129e-48 6.65727e-48 9.25319e-48 1.26777e-47 1.71217e-47 2.27939e-47 2.99135e-47 3.87005e-47 4.93624e-47 6.20793e-47 7.69873e-47 9.41618e-47 1.13602e-46 1.35222e-46 1.58838e-46 1.84175e-46 2.10868e-46 2.38481e-46 2.66521e-46 2.94469e-46 3.21806e-46 3.48042e-46 3.7274e-46 3.95538e-46 4.16164e-46 4.3444e-46 4.50282e-46 4.6369e-46 4.74734e-46 4.83537e-46 4.90253e-46 4.95055e-46 4.98117e-46 4.99604e-46 4.99672e-46 4.98463e-46 4.96114e-46 4.92763e-46 4.88554e-46 4.83648e-46 4.78228e-46 4.72498e-46 4.66681e-46 4.61014e-46 4.55731e-46 4.51059e-46 4.47195e-46 4.44298e-46 4.42475e-46 4.41776e-46 4.42189e-46 4.43641e-46 4.46009e-46 4.49126e-46 4.52796e-46 4.5681e-46 4.6096e-46 4.65051e-46 4.68914e-46 4.72414e-46 4.75452e-46 4.77971e-46 4.79951e-46 4.81408e-46 4.82387e-46 4.82957e-46 4.83202e-46 4.83218e-46 4.83106e-46 4.82964e-46 4.82886e-46 4.82957e-46 4.83252e-46 4.83832e-46 4.84744e-46 4.86023e-46 4.87687e-46 4.89741e-46 4.92178e-46 4.94977e-46 4.98108e-46 5.0153e-46 5.05192e-46 5.09034e-46 5.12989e-46 5.16983e-46 5.20933e-46 5.24753e-46 5.28348e-46 5.31626e-46 5.34493e-46 5.3686e-46 5.38646e-46 5.39786e-46 5.4023e-46 5.39946e-46 5.38926e-46 5.37179e-46 5.34729e-46 5.31612e-46 5.27869e-46 5.23535e-46 5.18639e-46 5.1319e-46 5.0718e-46 5.00576e-46 4.93324e-46 4.85352e-46 4.76569e-46 4.66876e-46 4.56172e-46 4.44357e-46 4.31343e-46 4.17061e-46 4.01465e-46 3.84539e-46 3.66306e-46 3.4683e-46 3.26219e-46 3.04628e-46 2.82258e-46 2.59351e-46 2.36182e-46 2.13051e-46 1.90271e-46 1.68148e-46 1.46973e-46 1.27006e-46 1.08462e-46 9.15027e-47 7.62354e-47 6.27073e-47 5.09103e-47 4.07872e-47 3.22395e-47 2.51379e-47 1.93324e-47 1.46626e-47 1.09665e-47 8.08777e-48 5.88126e-48 4.21677e-48 2.98093e-48 2.07771e-48 1.42786e-48 9.6753e-49 6.4645e-49 4.25908e-49 2.76713e-49 1.77297e-49 1.12036e-49 6.9828e-50 4.2929e-50 2.60348e-50 1.55767e-50 9.19501e-51 5.35579e-51 3.07842e-51 1.74625e-51 9.77689e-52 5.4032e-52 2.94782e-52 1.58779e-52 8.44438e-53 4.43477e-53 2.30009e-53 1.17824e-53 5.96178e-54 2.98002e-54 1.47164e-54 7.18039e-55 3.46118e-55 1.64698e-55 7.70361e-56 3.46568e-56 1.32393e-56 0 
0 1.46995e-75 5.362e-75 1.79768e-74 5.94e-74 1.94545e-73 6.3183e-73 2.03481e-72 6.4978e-72 2.05732e-71 6.45811e-71 2.00978e-70 6.20023e-70 1.89607e-69 5.74724e-69 1.72662e-68 5.14092e-68 1.51691e-67 4.43534e-67 1.28503e-66 3.6888e-66 1.0491e-65 2.95583e-65 8.2497e-65 2.28068e-64 6.2449e-64 1.69352e-63 4.54806e-63 1.20949e-62 3.18479e-62 8.30294e-62 2.14299e-61 5.47536e-61 1.38475e-60 3.4663e-60 8.58727e-60 2.10526e-59 5.10716e-59 1.22586e-58 2.91105e-58 6.83864e-58 1.58914e-57 3.65247e-57 8.30244e-57 1.86629e-56 4.14824e-56 9.11636e-56 1.98066e-55 4.25391e-55 9.03054e-55 1.89472e-54 3.92859e-54 8.0491e-54 1.62942e-53 3.25875e-53 6.43808e-53 1.25633e-52 2.42132e-52 4.60844e-52 8.66095e-52 1.6071e-51 2.94401e-51 5.32368e-51 9.50204e-51 1.67382e-50 2.90969e-50 4.99097e-50 8.44662e-50 1.41026e-49 2.32268e-49 3.77328e-49 6.04571e-49 9.55296e-49 1.48852e-48 2.28701e-48 3.46452e-48 5.17433e-48 7.61859e-48 1.10581e-47 1.58219e-47 2.23145e-47 3.10214e-47 4.25083e-47 5.7415e-47 7.64403e-47 1.00318e-46 1.29783e-46 1.65525e-46 2.08144e-46 2.58084e-46 3.15588e-46 3.80641e-46 4.52932e-46 5.31836e-46 6.16407e-46 7.05408e-46 7.97357e-46 8.90596e-46 9.83377e-46 1.07396e-45 1.16071e-45 1.24218e-45 1.31717e-45 1.3848e-45 1.44452e-45 1.49606e-45 1.53947e-45 1.57502e-45 1.60315e-45 1.6244e-45 1.63938e-45 1.64867e-45 1.65286e-45 1.65245e-45 1.64792e-45 1.63973e-45 1.62832e-45 1.61416e-45 1.59777e-45 1.57974e-45 1.56074e-45 1.54149e-45 1.52275e-45 1.5053e-45 1.48988e-45 1.47713e-45 1.46757e-45 1.46155e-45 1.45924e-45 1.46059e-45 1.46536e-45 1.47314e-45 1.48339e-45 1.49545e-45 1.50864e-45 1.52228e-45 1.53571e-45 1.54839e-45 1.55987e-45 1.56983e-45 1.57808e-45 1.58455e-45 1.5893e-45 1.59248e-45 1.59431e-45 1.59508e-45 1.5951e-45 1.5947e-45 1.5942e-45 1.59392e-45 1.59413e-45 1.59508e-45 1.59697e-45 1.59996e-45 1.60415e-45 1.60961e-45 1.61636e-45 1.62437e-45 1.63357e-45 1.64386e-45 1.65511e-45 1.66714e-45 1.67978e-45 1.69279e-45 1.70593e-45 1.71893e-45 1.73149e-45 1.74333e-45 1.75413e-45 1.76357e-45 1.77137e-45 1.77727e-45 1.78104e-45 1.78253e-45 1.78162e-45 1.7783e-45 1.7726e-45 1.76459e-45 1.75441e-45 1.74219e-45 1.72805e-45 1.71209e-45 1.69435e-45 1.6748e-45 1.65335e-45 1.62981e-45 1.60395e-45 1.57547e-45 1.54404e-45 1.50931e-45 1.47096e-45 1.42867e-45 1.38219e-45 1.33136e-45 1.2761e-45 1.21647e-45 1.15264e-45 1.08496e-45 1.01392e-45 9.4018e-46 8.64523e-46 7.87865e-46 7.11204e-46 6.35582e-46 5.62036e-46 4.91548e-46 4.24997e-46 3.63119e-46 3.06477e-46 2.55439e-46 2.10181e-46 1.70689e-46 1.3678e-46 1.08135e-46 8.43261e-47 6.48568e-47 4.91924e-47 3.6792e-47 2.71326e-47 1.97285e-47 1.41432e-47 9.99652e-48 6.96621e-48 4.78627e-48 3.24237e-48 2.16574e-48 1.42643e-48 9.26437e-49 5.93374e-49 3.74816e-49 2.33514e-49 1.43499e-49 8.69884e-50 5.20217e-50 3.06943e-50 1.78698e-50 1.02662e-50 5.82062e-51 3.25717e-51 1.79914e-51 9.81039e-52 5.28137e-52 2.80731e-52 1.47353e-52 7.6383e-53 3.91064e-53 1.97768e-53 9.88011e-54 4.87649e-54 2.37804e-54 1.14567e-54 5.4487e-55 2.54727e-55 1.14542e-55 4.37409e-56 0 
0 4.71732e-75 1.72112e-74 5.77173e-74 1.90763e-73 6.24948e-73 2.03023e-72 6.54021e-72 2.0891e-71 6.61644e-71 2.07759e-70 6.46752e-70 1.99588e-69 6.10551e-69 1.85128e-68 5.56364e-68 1.65712e-67 4.89133e-67 1.43071e-66 4.14665e-66 1.19079e-65 3.38795e-65 9.54927e-65 2.66627e-64 7.37411e-64 2.02001e-63 5.4803e-63 1.47241e-62 3.9174e-62 1.03199e-61 2.69169e-61 6.95054e-61 1.77671e-60 4.49561e-60 1.12589e-59 2.79064e-59 6.84502e-59 1.6614e-58 3.9899e-58 9.47988e-58 2.22822e-57 5.18068e-57 1.19139e-56 2.70966e-56 6.09443e-56 1.3554e-55 2.98041e-55 6.47916e-55 1.39236e-54 2.95757e-54 6.20904e-54 1.28818e-53 2.64088e-53 5.34932e-53 1.07048e-52 2.11616e-52 4.132e-52 7.9684e-52 1.51752e-51 2.8537e-51 5.29839e-51 9.71176e-51 1.75722e-50 3.13822e-50 5.53126e-50 9.62067e-50 1.65114e-49 2.79586e-49 4.67044e-49 7.69611e-49 1.25088e-48 2.00516e-48 3.16984e-48 4.94131e-48 7.59507e-48 1.151e-47 1.71964e-47 2.5328e-47 3.67736e-47 5.2629e-47 7.42426e-47 1.03231e-46 1.41477e-46 1.91111e-46 2.54455e-46 3.33946e-46 4.32019e-46 5.50959e-46 6.92729e-46 8.58787e-46 1.0499e-45 1.26596e-45 1.50588e-45 1.76752e-45 2.04768e-45 2.34218e-45 2.64602e-45 2.95366e-45 3.25927e-45 3.55704e-45 3.84157e-45 4.10809e-45 4.35271e-45 4.57258e-45 4.76595e-45 4.9321e-45 5.07129e-45 5.18452e-45 5.27338e-45 5.33977e-45 5.38577e-45 5.41339e-45 5.42457e-45 5.42104e-45 5.40437e-45 5.37603e-45 5.33745e-45 5.29016e-45 5.23581e-45 5.17631e-45 5.11377e-45 5.05053e-45 4.98908e-45 4.93191e-45 4.8814e-45 4.83966e-45 4.80837e-45 4.78867e-45 4.78108e-45 4.78545e-45 4.80099e-45 4.82637e-45 4.85977e-45 4.89911e-45 4.94211e-45 4.98654e-45 5.0303e-45 5.07157e-45 5.10892e-45 5.14128e-45 5.16805e-45 5.18902e-45 5.20438e-45 5.21461e-45 5.22045e-45 5.22283e-45 5.22277e-45 5.22136e-45 5.21965e-45 5.21865e-45 5.21927e-45 5.22231e-45 5.22842e-45 5.23812e-45 5.25176e-45 5.26953e-45 5.29151e-45 5.31759e-45 5.34758e-45 5.38113e-45 5.41781e-45 5.45707e-45 5.49828e-45 5.54073e-45 5.58359e-45 5.62602e-45 5.66705e-45 5.7057e-45 5.74097e-45 5.77183e-45 5.79735e-45 5.81665e-45 5.82903e-45 5.83396e-45 5.83111e-45 5.8204e-45 5.80193e-45 5.776e-45 5.74302e-45 5.70345e-45 5.65772e-45 5.60615e-45 5.5489e-45 5.48589e-45 5.41681e-45 5.3411e-45 5.25798e-45 5.16648e-45 5.0655e-45 4.95389e-45 4.83052e-45 4.69434e-45 4.54448e-45 4.3803e-45 4.20149e-45 4.00814e-45 3.80077e-45 3.58042e-45 3.34865e-45 3.10756e-45 2.85971e-45 2.60811e-45 2.35605e-45 2.10699e-45 1.86439e-45 1.63156e-45 1.41145e-45 1.20655e-45 1.01881e-45 8.49483e-46 6.99214e-46 5.67997e-46 4.55268e-46 3.59989e-46 2.80766e-46 2.15961e-46 1.63808e-46 1.22514e-46 9.03443e-47 6.56844e-47 4.70824e-47 3.32725e-47 2.31816e-47 1.59236e-47 1.07842e-47 7.20115e-48 4.74136e-48 3.07833e-48 1.9709e-48 1.24445e-48 7.74984e-49 4.76034e-49 2.88437e-49 1.72413e-49 1.01679e-49 5.91666e-50 3.39739e-50 1.92521e-50 1.07676e-50 5.94446e-51 3.23965e-51 1.74309e-51 9.26026e-52 4.85792e-52 2.51678e-52 1.28782e-52 6.50905e-53 3.24998e-53 1.60318e-53 7.8136e-54 3.76228e-54 1.78832e-54 8.35595e-55 3.75558e-55 1.43365e-55 0 
0 1.50101e-74 5.47765e-74 1.83738e-73 6.0744e-73 1.99055e-72 6.46839e-72 2.08434e-71 6.65987e-71 2.1099e-70 6.62723e-70 2.06371e-69 6.37071e-69 1.94949e-68 5.91315e-68 1.77769e-67 5.29671e-67 1.56401e-66 4.57641e-66 1.3269e-65 3.81192e-65 1.08497e-64 3.05933e-64 8.54557e-64 2.36445e-63 6.47978e-63 1.75874e-62 4.7274e-62 1.25831e-61 3.3164e-61 8.65414e-61 2.23576e-60 5.71792e-60 1.44752e-59 3.62705e-59 8.99466e-59 2.20741e-58 5.3606e-58 1.28806e-57 3.06207e-57 7.20129e-57 1.67527e-56 3.85476e-56 8.77222e-56 1.97415e-55 4.3931e-55 9.66582e-55 2.10253e-54 4.52104e-54 9.60918e-54 2.01856e-53 4.19048e-53 8.59619e-53 1.74231e-52 3.48882e-52 6.90111e-52 1.34835e-51 2.60186e-51 4.95815e-51 9.32957e-51 1.73327e-50 3.17897e-50 5.75543e-50 1.02848e-49 1.81381e-49 3.15665e-49 5.42066e-49 9.18387e-49 1.53499e-48 2.53074e-48 4.11541e-48 6.60025e-48 1.04389e-47 1.62799e-47 2.50338e-47 3.79525e-47 5.67239e-47 8.35747e-47 1.21379e-46 1.7376e-46 2.45178e-46 3.40975e-46 4.67378e-46 6.31417e-46 8.40761e-46 1.10344e-45 1.42746e-45 1.82032e-45 2.28842e-45 2.83648e-45 3.46688e-45 4.17912e-45 4.96943e-45 5.8305e-45 6.75155e-45 7.71856e-45 8.7149e-45 9.72208e-45 1.07208e-44 1.16919e-44 1.26176e-44 1.34823e-44 1.42734e-44 1.4982e-44 1.56025e-44 1.6133e-44 1.65748e-44 1.69316e-44 1.7209e-44 1.74136e-44 1.75525e-44 1.76325e-44 1.76602e-44 1.76411e-44 1.75806e-44 1.74833e-44 1.73539e-44 1.71971e-44 1.70182e-44 1.68233e-44 1.6619e-44 1.6413e-44 1.6213e-44 1.60272e-44 1.58631e-44 1.57276e-44 1.5626e-44 1.5562e-44 1.55373e-44 1.55513e-44 1.56015e-44 1.56836e-44 1.57916e-44 1.59188e-44 1.60578e-44 1.62014e-44 1.63427e-44 1.6476e-44 1.65965e-44 1.67008e-44 1.67869e-44 1.68543e-44 1.69035e-44 1.69362e-44 1.69546e-44 1.69619e-44 1.69613e-44 1.69564e-44 1.69506e-44 1.6947e-44 1.69488e-44 1.69584e-44 1.6978e-44 1.70093e-44 1.70532e-44 1.71106e-44 1.71816e-44 1.72659e-44 1.73629e-44 1.74714e-44 1.759e-44 1.7717e-44 1.78503e-44 1.79876e-44 1.81264e-44 1.82637e-44 1.83965e-44 1.85217e-44 1.8636e-44 1.8736e-44 1.88188e-44 1.88815e-44 1.89218e-44 1.8938e-44 1.89291e-44 1.88949e-44 1.88356e-44 1.87523e-44 1.86464e-44 1.85194e-44 1.83728e-44 1.82076e-44 1.80245e-44 1.78232e-44 1.76028e-44 1.73616e-44 1.70969e-44 1.68057e-44 1.64843e-44 1.6129e-44 1.57359e-44 1.53015e-44 1.48227e-44 1.42973e-44 1.37239e-44 1.31025e-44 1.24346e-44 1.17233e-44 1.09735e-44 1.01918e-44 9.38657e-45 8.56746e-45 7.7453e-45 6.93152e-45 6.13757e-45 5.37445e-45 4.65206e-45 3.97883e-45 3.36126e-45 2.80378e-45 2.30862e-45 1.87594e-45 1.50399e-45 1.18946e-45 9.27818e-46 7.13724e-46 5.41383e-46 4.04903e-46 2.98567e-46 2.17051e-46 1.5556e-46 1.09912e-46 7.65617e-47 5.25776e-47 3.5598e-47 2.37632e-47 1.56408e-47 1.0151e-47 6.49666e-48 4.1004e-48 2.55241e-48 1.56711e-48 9.49091e-49 5.67041e-49 3.3424e-49 1.94392e-49 1.11563e-49 6.31859e-50 3.53203e-50 1.94884e-50 1.0615e-50 5.70815e-51 3.03075e-51 1.58902e-51 8.22762e-52 4.20757e-52 2.12542e-52 1.06061e-52 5.22886e-53 2.54698e-53 1.22568e-53 5.82271e-54 2.71918e-54 1.22153e-54 4.6613e-55 0 
0 4.73521e-74 1.72841e-73 5.79916e-73 1.91773e-72 6.28608e-72 2.04329e-71 6.58614e-71 2.10504e-70 6.67101e-70 2.09604e-69 6.52918e-69 2.01624e-68 6.17195e-68 1.87272e-67 5.63205e-67 1.67871e-66 4.95872e-66 1.45152e-65 4.21021e-65 1.21e-64 3.44536e-64 9.71906e-64 2.71596e-63 7.51795e-63 2.06121e-62 5.59706e-62 1.50515e-61 4.0082e-61 1.0569e-60 2.75932e-60 7.13214e-60 1.82495e-59 4.62233e-59 1.15882e-58 2.87525e-58 7.06006e-58 1.71544e-57 4.1242e-57 9.80984e-57 2.30837e-56 5.37317e-56 1.23708e-55 2.81688e-55 6.34308e-55 1.41239e-54 3.10947e-54 6.76797e-54 1.45622e-53 3.09704e-53 6.50996e-53 1.35231e-52 2.77585e-52 5.62983e-52 1.12805e-51 2.23279e-51 4.36529e-51 8.42898e-51 1.60727e-50 3.02629e-50 5.62589e-50 1.03249e-49 1.87047e-49 3.34454e-49 5.90199e-49 1.02776e-48 1.76594e-48 2.99364e-48 5.00637e-48 8.25853e-48 1.34368e-47 2.15609e-47 3.4117e-47 5.32319e-47 8.18911e-47 1.24202e-46 1.85704e-46 2.73705e-46 3.9764e-46 5.69404e-46 8.03632e-46 1.11786e-45 1.53252e-45 2.07064e-45 2.75736e-45 3.61894e-45 4.68151e-45 5.96948e-45 7.5036e-45 9.29893e-45 1.13628e-44 1.36931e-44 1.62768e-44 1.90892e-44 2.20941e-44 2.52451e-44 2.8487e-44 3.17586e-44 3.49965e-44 3.8138e-44 4.11251e-44 4.39072e-44 4.64442e-44 4.87074e-44 5.06802e-44 5.23579e-44 5.37458e-44 5.48576e-44 5.57128e-44 5.63341e-44 5.67454e-44 5.69701e-44 5.70293e-44 5.69421e-44 5.67253e-44 5.6394e-44 5.59627e-44 5.54467e-44 5.48624e-44 5.42288e-44 5.35671e-44 5.2901e-44 5.22556e-44 5.16564e-44 5.11277e-44 5.06911e-44 5.03639e-44 5.01578e-44 5.00778e-44 5.01224e-44 5.02834e-44 5.05465e-44 5.0893e-44 5.13008e-44 5.17464e-44 5.22065e-44 5.26593e-44 5.3086e-44 5.34713e-44 5.38047e-44 5.40798e-44 5.42945e-44 5.44508e-44 5.4554e-44 5.46117e-44 5.46337e-44 5.46306e-44 5.46136e-44 5.45938e-44 5.45816e-44 5.45865e-44 5.46167e-44 5.4679e-44 5.47786e-44 5.49193e-44 5.51031e-44 5.53305e-44 5.56007e-44 5.59115e-44 5.62594e-44 5.66399e-44 5.70473e-44 5.7475e-44 5.79157e-44 5.8361e-44 5.88019e-44 5.92285e-44 5.96306e-44 5.99978e-44 6.03194e-44 6.05856e-44 6.07876e-44 6.09178e-44 6.09708e-44 6.09434e-44 6.08347e-44 6.06462e-44 6.0381e-44 6.00439e-44 5.96398e-44 5.91738e-44 5.86495e-44 5.80689e-44 5.74319e-44 5.67353e-44 5.59737e-44 5.5139e-44 5.4221e-44 5.32081e-44 5.20877e-44 5.08472e-44 4.94747e-44 4.79595e-44 4.62934e-44 4.44714e-44 4.24925e-44 4.03604e-44 3.80844e-44 3.56793e-44 3.31661e-44 3.05713e-44 2.79263e-44 2.52662e-44 2.26284e-44 2.00505e-44 1.75689e-44 1.52165e-44 1.30214e-44 1.10056e-44 9.18415e-45 7.56495e-45 6.14899e-45 4.93103e-45 3.90055e-45 3.04299e-45 2.34102e-45 1.7758e-45 1.32811e-45 9.79266e-46 7.11827e-46 5.10091e-46 3.60343e-46 2.50948e-46 1.7229e-46 1.16616e-46 7.78213e-47 5.12034e-47 3.3219e-47 2.12515e-47 1.34073e-47 8.342e-48 5.11935e-48 3.09893e-48 1.85055e-48 1.09023e-48 6.33737e-49 3.63507e-49 2.05766e-49 1.14957e-49 6.33924e-50 3.45087e-50 1.85461e-50 9.84128e-51 5.15672e-51 2.66846e-51 1.36383e-51 6.88515e-52 3.43373e-52 1.69184e-52 8.23608e-53 3.96111e-53 1.88067e-53 8.77769e-54 3.94116e-54 1.50335e-54 0 