# vtk DataFile Version 3.0
Gray-Scott Simulation Output
ASCII
DATASET STRUCTURED_POINTS
DIMENSIONS 256 256 1
SPACING 1.0 1.0 1.0
ORIGIN 0 0 0
POINT_DATA 65536
SCALARS u double
LOOKUP_TABLE default
0 0 0 0 0 0 0 0 0 0 0 0 0 0 0 0 0 0 0 0 0 0 0 0 0 0 0 0 0 0 0 0 0 0 0 0 0 0 0 0 0 0 0 0 0 0 0 0 0 0 0 0 0 0 0 0 0 0 0 0 0 0 0 0 0 0 0 0 0 0 0 0 0 0 0 0 0 0 0 0 0 0 0 0 0 0 0 0 0 0 0 0 0 0 0 0 0 0 0 0 0 0 0 0 0 0 0 0 0 0 0 0 0 0 0 0 0 0 0 0 0 0 0 0 0 0 0 0 0 0 0 0 0 0 0 0 0 0 0 0 0 0 0 0 0 0 0 0 0 0 0 0 0 0 0 0 0 0 0 0 0 0 0 0 0 0 0 0 0 0 0 0 0 0 0 0 0 0 0 0 0 0 0 0 0 0 0 0 0 0 0 0 0 0 0 0 0 0 0 0 0 0 0 0 0 0 0 0 0 0 0 0 0 0 0 0 0 0 0 0 0 0 0 0 0 0 0 0 0 0 0 0 0 0 0 0 0 0 0 0 0 0 0 0 0 0 0 0 0 0 0 0 0 0 0 0 
0 4.36454e-118 3.38242e-117 2.55324e-116 1.90744e-115 1.41053e-114 1.03239e-113 7.47823e-113 5.36043e-112 3.80194e-111 2.66791e-110 1.85205e-109 1.27176e-108 8.63729e-108 5.80131e-107 3.85302e-106 2.53019e-105 1.6426e-104 1.05411e-103 6.68591e-103 4.19087e-102 2.59574e-101 1.58846e-100 9.60263e-100 5.73386e-99 3.38131e-98 1.969e-97 1.13204e-96 6.42506e-96 3.59932e-95 1.98988e-94 1.0855e-93 5.84194e-93 3.10127e-92 1.62369e-91 8.3825e-91 4.26653e-90 2.14056e-89 1.05841e-88 5.15668e-88 2.4751e-87 1.17013e-86 5.44765e-86 2.49704e-85 1.12666e-84 5.00278e-84 2.18569e-83 9.39339e-83 3.97019e-82 1.64987e-81 6.73954e-81 2.70547e-80 1.06702e-79 4.13337e-79 1.57224e-78 5.87075e-78 2.15131e-77 7.73423e-77 2.72712e-76 9.42821e-76 3.19486e-75 1.06079e-74 3.44999e-74 1.09866e-73 3.42465e-73 1.04451e-72 3.11602e-72 9.0888e-72 2.59099e-71 7.21616e-71 1.96269e-70 5.21101e-70 1.35001e-69 3.41121e-69 8.40332e-69 2.01732e-68 4.71721e-68 1.07397e-67 2.37958e-67 5.12883e-67 1.07486e-66 2.18935e-66 4.3323e-66 8.32502e-66 1.5529e-65 2.81078e-65 4.93504e-65 8.40233e-65 1.38688e-64 2.21882e-64 3.44023e-64 5.16903e-64 7.52676e-64 1.06231e-63 1.4537e-63 1.92962e-63 2.48615e-63 3.11185e-63 3.7881e-63 4.49084e-63 5.19335e-63 5.86953e-63 6.49718e-63 7.0604e-63 7.55069e-63 7.96678e-63 8.3133e-63 8.59882e-63 8.83371e-63 9.02816e-63 9.19069e-63 9.32698e-63 9.4391e-63 9.52513e-63 9.57928e-63 9.59256e-63 9.55422e-63 9.4538e-63 9.28374e-63 9.04199e-63 8.73418e-63 8.3747e-63 7.98643e-63 7.59867e-63 7.24378e-63 6.95281e-63 6.75102e-63 6.65426e-63 6.66679e-63 6.78116e-63 6.9799e-63 7.2388e-63 7.53088e-63 7.83019e-63 8.11487e-63 8.36882e-63 8.58218e-63 8.7506e-63 8.87394e-63 8.95482e-63 8.99738e-63 9.00659e-63 8.98784e-63 8.94696e-63 8.89014e-63 8.82383e-63 8.75437e-63 8.68751e-63 8.62795e-63 8.57907e-63 8.543e-63 8.52098e-63 8.5139e-63 8.52281e-63 8.54917e-63 8.59481e-63 8.66132e-63 8.74934e-63 8.85776e-63 8.98336e-63 9.12094e-63 9.26416e-63 9.4069e-63 9.54472e-63 9.67607e-63 9.8026e-63 9.92841e-63 1.00583e-62 1.01955e-62 1.03393e-62 1.04833e-62 1.06161e-62 1.07223e-62 1.07861e-62 1.07945e-62 1.0741e-62 1.06277e-62 1.04649e-62 1.027e-62 1.00635e-62 9.86501e-63 9.68938e-63 9.5436e-63 9.42568e-63 9.3251e-63 9.22493e-63 9.10507e-63 8.94593e-63 8.73182e-63 8.4534e-63 8.10881e-63 7.70319e-63 7.24694e-63 6.75318e-63 6.23514e-63 5.70414e-63 5.16865e-63 4.63448e-63 4.10587e-63 3.58693e-63 3.08283e-63 2.60032e-63 2.14743e-63 1.73251e-63 1.36292e-63 1.04376e-63 7.7716e-64 5.62043e-64 3.94512e-64 2.68634e-64 1.77393e-64 1.13584e-64 7.0516e-65 4.24508e-65 2.47845e-65 1.40368e-65 7.71389e-66 4.11469e-66 2.13116e-66 1.0722e-66 5.24189e-67 2.49137e-67 1.15163e-67 5.17957e-68 2.26764e-68 9.6682e-69 4.01601e-69 1.62596e-69 6.41917e-70 2.47221e-70 9.29202e-71 3.40983e-71 1.22216e-71 4.28028e-72 1.46531e-72 4.90534e-73 1.60639e-73 5.14792e-74 1.61499e-74 4.96152e-75 1.49318e-75 4.40363e-76 1.27306e-76 3.60877e-77 1.00342e-77 2.73743e-78 7.32945e-79 1.92659e-79 4.97303e-80 1.2609e-80 3.14112e-81 7.69027e-82 1.85059e-82 4.36826e-83 9.66805e-84 0 
0 3.37876e-117 2.61788e-116 1.97568e-115 1.47564e-114 1.09097e-113 7.98326e-113 5.78147e-112 4.14329e-111 2.93804e-110 2.06125e-109 1.4306e-108 9.82151e-108 6.66901e-107 4.47837e-106 2.97376e-105 1.95241e-104 1.26725e-103 8.13071e-103 5.15607e-102 3.2313e-101 2.00102e-100 1.22429e-99 7.39975e-99 4.41767e-98 2.60467e-97 1.51647e-96 8.71717e-96 4.94667e-95 2.77065e-94 1.53149e-93 8.35305e-93 4.49472e-92 2.38569e-91 1.24885e-90 6.44635e-90 3.28057e-89 1.64566e-88 8.13583e-88 3.9633e-87 1.90204e-86 8.99092e-86 4.18526e-85 1.91816e-84 8.65359e-84 3.84207e-83 1.67839e-82 7.21236e-82 3.04804e-81 1.26653e-80 5.17311e-80 2.07646e-79 8.18868e-79 3.17182e-78 1.20639e-77 4.50433e-77 1.65047e-76 5.93326e-76 2.09196e-75 7.23191e-75 2.45049e-74 8.13599e-74 2.64593e-73 8.42574e-73 2.6263e-72 8.00996e-72 2.38949e-71 6.96951e-71 1.9868e-70 5.53336e-70 1.50498e-69 3.99576e-69 1.03518e-68 2.6157e-68 6.44368e-68 1.5469e-67 3.61725e-67 8.23556e-67 1.82478e-66 3.93312e-66 8.24293e-66 1.67902e-65 3.32254e-65 6.38481e-65 1.19101e-64 2.15583e-64 3.7852e-64 6.4448e-64 1.0638e-63 1.70197e-63 2.63892e-63 3.96513e-63 5.77383e-63 8.14919e-63 1.11517e-62 1.48027e-62 1.90721e-62 2.38719e-62 2.90595e-62 3.44502e-62 3.98386e-62 4.50248e-62 4.98384e-62 5.41572e-62 5.79161e-62 6.11055e-62 6.37611e-62 6.59485e-62 6.77474e-62 6.92362e-62 7.04802e-62 7.15232e-62 7.2381e-62 7.30391e-62 7.34531e-62 7.35544e-62 7.32606e-62 7.24916e-62 7.11897e-62 6.93392e-62 6.6983e-62 6.42316e-62 6.12597e-62 5.8292e-62 5.55761e-62 5.33496e-62 5.1806e-62 5.10665e-62 5.11638e-62 5.20406e-62 5.35631e-62 5.55461e-62 5.77829e-62 6.00747e-62 6.22542e-62 6.41983e-62 6.58315e-62 6.71205e-62 6.80643e-62 6.8683e-62 6.90084e-62 6.90785e-62 6.89348e-62 6.86217e-62 6.81869e-62 6.76797e-62 6.71486e-62 6.66375e-62 6.61823e-62 6.58088e-62 6.55333e-62 6.53651e-62 6.53111e-62 6.53791e-62 6.55806e-62 6.59293e-62 6.64375e-62 6.71101e-62 6.79388e-62 6.88988e-62 6.99504e-62 7.10453e-62 7.21364e-62 7.31901e-62 7.41944e-62 7.51619e-62 7.6124e-62 7.71177e-62 7.81672e-62 7.92664e-62 8.03681e-62 8.13837e-62 8.21964e-62 8.26842e-62 8.27487e-62 8.234e-62 8.1473e-62 8.02283e-62 7.87377e-62 7.71583e-62 7.56403e-62 7.42967e-62 7.31814e-62 7.22788e-62 7.15087e-62 7.07416e-62 6.98236e-62 6.8605e-62 6.69656e-62 6.4834e-62 6.21959e-62 5.90904e-62 5.5597e-62 5.18158e-62 4.78479e-62 4.37796e-62 3.96757e-62 3.55804e-62 3.15263e-62 2.7545e-62 2.36763e-62 1.99723e-62 1.6495e-62 1.33086e-62 1.04699e-62 8.01841e-63 5.97047e-63 4.3179e-63 3.03085e-63 2.06379e-63 1.36282e-63 8.72593e-64 5.41723e-64 3.26112e-64 1.90393e-64 1.07827e-64 5.92544e-65 3.16062e-65 1.63695e-65 8.23534e-66 4.02608e-66 1.91346e-66 8.84462e-67 3.97786e-67 1.74148e-67 7.4247e-68 3.08403e-68 1.24861e-68 4.92932e-69 1.8984e-69 7.13523e-70 2.61835e-70 9.38478e-71 3.28676e-71 1.1252e-71 3.76679e-72 1.23356e-72 3.95321e-73 1.24022e-73 3.81026e-74 1.14675e-74 3.38207e-75 9.77773e-76 2.77186e-76 7.70753e-77 2.10282e-77 5.63063e-78 1.48015e-78 3.82091e-79 9.68857e-80 2.41378e-80 5.91006e-81 1.42233e-81 3.35767e-82 7.43201e-83 0 
0 2.54757e-116 1.97343e-115 1.48897e-114 1.11186e-113 8.21835e-113 6.01248e-112 4.35325e-111 3.11906e-110 2.21125e-109 1.55102e-108 1.07624e-107 7.38714e-107 5.01495e-106 3.36692e-105 2.23526e-104 1.46724e-103 9.52148e-103 6.10777e-102 3.87245e-101 2.42638e-100 1.50227e-99 9.18956e-99 5.55322e-98 3.31466e-97 1.95397e-96 1.13742e-95 6.53706e-95 3.70888e-94 2.077e-93 1.14788e-92 6.25967e-92 3.36772e-91 1.78722e-90 9.35416e-90 4.8277e-89 2.45646e-88 1.23207e-87 6.09024e-87 2.96639e-86 1.42341e-85 6.72754e-85 3.13125e-84 1.43491e-83 6.47267e-83 2.87343e-82 1.2551e-81 5.39282e-81 2.27883e-80 9.46809e-80 3.86685e-79 1.55199e-78 6.11987e-78 2.37029e-77 9.0146e-77 3.36555e-76 1.23312e-75 4.43263e-75 1.56277e-74 5.40222e-74 1.83042e-73 6.07699e-73 1.97624e-72 6.29295e-72 1.96145e-71 5.98209e-71 1.78451e-70 5.20486e-70 1.48374e-69 4.13228e-69 1.12391e-68 2.98401e-68 7.73068e-68 1.95342e-67 4.81226e-67 1.15527e-66 2.70154e-66 6.15086e-66 1.3629e-65 2.93768e-65 6.15689e-65 1.25415e-64 2.48187e-64 4.76948e-64 8.89723e-64 1.61052e-63 2.82785e-63 4.81493e-63 7.94794e-63 1.27163e-62 1.97172e-62 2.96269e-62 4.3142e-62 6.08917e-62 8.33277e-62 1.1061e-61 1.42512e-61 1.78378e-61 2.1714e-61 2.57418e-61 2.97677e-61 3.36421e-61 3.72378e-61 4.04635e-61 4.32705e-61 4.56517e-61 4.76337e-61 4.92659e-61 5.06077e-61 5.17178e-61 5.26452e-61 5.34224e-61 5.40615e-61 5.45518e-61 5.48601e-61 5.49353e-61 5.4716e-61 5.41426e-61 5.31719e-61 5.17923e-61 5.00357e-61 4.79846e-61 4.57693e-61 4.35571e-61 4.15329e-61 3.98736e-61 3.87236e-61 3.81733e-61 3.82468e-61 3.89015e-61 4.00377e-61 4.15169e-61 4.31852e-61 4.48943e-61 4.65195e-61 4.7969e-61 4.91865e-61 5.01473e-61 5.08507e-61 5.13116e-61 5.15539e-61 5.16059e-61 5.14985e-61 5.12651e-61 5.09411e-61 5.05632e-61 5.01677e-61 4.97872e-61 4.94483e-61 4.91704e-61 4.89655e-61 4.88404e-61 4.88002e-61 4.88509e-61 4.90008e-61 4.92603e-61 4.96385e-61 5.0139e-61 5.07558e-61 5.14704e-61 5.22532e-61 5.30683e-61 5.38806e-61 5.46651e-61 5.54129e-61 5.61334e-61 5.68499e-61 5.75901e-61 5.83718e-61 5.91907e-61 6.00114e-61 6.0768e-61 6.13734e-61 6.17369e-61 6.1785e-61 6.14808e-61 6.08351e-61 5.9908e-61 5.87978e-61 5.76214e-61 5.64905e-61 5.54896e-61 5.46585e-61 5.39857e-61 5.34115e-61 5.28393e-61 5.21546e-61 5.12458e-61 5.00233e-61 4.84339e-61 4.64669e-61 4.41513e-61 4.15461e-61 3.8726e-61 3.57659e-61 3.27302e-61 2.96667e-61 2.66087e-61 2.35802e-61 2.0605e-61 1.7713e-61 1.49433e-61 1.23424e-61 9.95883e-62 7.83499e-62 6.00063e-62 4.46813e-62 3.23144e-62 2.26824e-62 1.5445e-62 1.01989e-62 6.53013e-63 4.05395e-63 2.44038e-63 1.42471e-63 8.06847e-64 4.43373e-64 2.36486e-64 1.22477e-64 6.16144e-65 3.01208e-65 1.43149e-65 6.61653e-66 2.97567e-66 1.30269e-66 5.55374e-67 2.30681e-67 9.33916e-68 3.68688e-68 1.41988e-68 5.33659e-69 1.9583e-69 7.01892e-70 2.45817e-70 8.41536e-71 2.8172e-71 9.22591e-72 2.95669e-72 9.27604e-73 2.8499e-73 8.57741e-74 2.52979e-74 7.31403e-75 2.07352e-75 5.766e-76 1.5732e-76 4.21275e-77 1.10749e-77 2.85912e-78 7.25033e-79 1.80647e-79 4.42344e-80 1.06465e-80 2.51353e-81 5.56403e-82 0 
0 1.90099e-115 1.47224e-114 1.11056e-113 8.29099e-113 6.12693e-112 4.4814e-111 3.24397e-110 2.32375e-109 1.64706e-108 1.15503e-107 8.01297e-107 5.49878e-106 3.73219e-105 2.50518e-104 1.66282e-103 1.09126e-102 7.08015e-102 4.54081e-101 2.87839e-100 1.80317e-99 1.1162e-98 6.82663e-98 4.12453e-97 2.46143e-96 1.45073e-95 8.44326e-95 4.85172e-94 2.7522e-93 1.54099e-92 8.51498e-92 4.64268e-91 2.49737e-90 1.32512e-89 6.93448e-89 3.57835e-88 1.82049e-87 9.12954e-87 4.51219e-86 2.19746e-85 1.0543e-84 4.98234e-84 2.31868e-83 1.06241e-82 4.79183e-82 2.12701e-81 9.28962e-81 3.99108e-80 1.68633e-79 7.00568e-79 2.86092e-78 1.14815e-77 4.52706e-77 1.75324e-76 6.66738e-76 2.48906e-75 9.11917e-75 3.27784e-74 1.15558e-73 3.99442e-73 1.35336e-72 4.49299e-72 1.46108e-71 4.65238e-71 1.45007e-70 4.42238e-70 1.31922e-69 3.84772e-69 1.09686e-68 3.0548e-68 8.30857e-68 2.20598e-67 5.71511e-67 1.44415e-66 3.55773e-66 8.54121e-66 1.99737e-65 4.54775e-65 1.00772e-64 2.17218e-64 4.55271e-64 9.27414e-64 1.83536e-63 3.52721e-63 6.5801e-63 1.19114e-62 2.09155e-62 3.56138e-62 5.87894e-62 9.40628e-62 1.45853e-61 2.19164e-61 3.19149e-61 4.50464e-61 6.1645e-61 8.18288e-61 1.05431e-60 1.31965e-60 1.6064e-60 1.90435e-60 2.20214e-60 2.48871e-60 2.75463e-60 2.99315e-60 3.20067e-60 3.37667e-60 3.52312e-60 3.64369e-60 3.74277e-60 3.82471e-60 3.89315e-60 3.95049e-60 3.99763e-60 4.03378e-60 4.05651e-60 4.06204e-60 4.04584e-60 4.0035e-60 3.93185e-60 3.83002e-60 3.70039e-60 3.54901e-60 3.38552e-60 3.22228e-60 3.07291e-60 2.9505e-60 2.86568e-60 2.82513e-60 2.83064e-60 2.87904e-60 2.96297e-60 3.07221e-60 3.19539e-60 3.32158e-60 3.44155e-60 3.54855e-60 3.6384e-60 3.7093e-60 3.76119e-60 3.79518e-60 3.81304e-60 3.81686e-60 3.80892e-60 3.79169e-60 3.76779e-60 3.73992e-60 3.71076e-60 3.68271e-60 3.65775e-60 3.63727e-60 3.62218e-60 3.61297e-60 3.61001e-60 3.61374e-60 3.62479e-60 3.6439e-60 3.67176e-60 3.70864e-60 3.75408e-60 3.80674e-60 3.86443e-60 3.9245e-60 3.98438e-60 4.0422e-60 4.09732e-60 4.15043e-60 4.20327e-60 4.25784e-60 4.31549e-60 4.37588e-60 4.4364e-60 4.49221e-60 4.53686e-60 4.56368e-60 4.56723e-60 4.5448e-60 4.4972e-60 4.42884e-60 4.34698e-60 4.26023e-60 4.17683e-60 4.10301e-60 4.04169e-60 3.99205e-60 3.94966e-60 3.90741e-60 3.85686e-60 3.78976e-60 3.69952e-60 3.5822e-60 3.437e-60 3.26607e-60 3.07374e-60 2.86551e-60 2.6469e-60 2.42264e-60 2.19625e-60 1.97017e-60 1.74619e-60 1.52607e-60 1.31202e-60 1.10697e-60 9.14379e-61 7.37836e-61 5.8051e-61 4.44612e-61 3.3107e-61 2.39438e-61 1.68069e-61 1.14441e-61 7.5569e-62 4.83841e-62 3.00364e-62 1.80806e-62 1.05553e-62 5.97745e-63 3.28456e-63 1.75184e-63 9.07244e-64 4.56387e-64 2.23099e-64 1.06023e-64 4.9003e-65 2.20373e-65 9.64708e-66 4.11268e-66 1.70818e-66 6.91537e-67 2.72994e-67 1.05131e-67 3.95126e-68 1.44991e-68 5.19668e-69 1.81996e-69 6.23046e-70 2.08576e-70 6.83057e-71 2.18906e-71 6.86782e-72 2.11006e-72 6.35082e-73 1.87314e-73 5.41572e-74 1.53541e-74 4.26982e-75 1.16504e-75 3.11992e-76 8.20248e-77 2.1177e-77 5.37055e-78 1.33821e-78 3.27708e-79 7.88801e-80 1.86244e-80 4.12311e-81 0 
0 1.40409e-114 1.08716e-113 8.199e-113 6.11964e-112 4.52131e-111 3.30626e-110 2.39279e-109 1.71365e-108 1.21436e-107 8.51405e-107 5.90532e-106 4.05158e-105 2.74935e-104 1.84508e-103 1.22442e-102 8.03392e-102 5.21139e-101 3.34163e-100 2.11782e-99 1.32646e-98 8.20944e-98 5.01991e-97 3.03238e-96 1.80933e-95 1.0662e-94 6.20416e-94 3.56445e-93 2.02163e-92 1.13174e-91 6.2526e-91 3.40859e-90 1.83324e-89 9.72577e-89 5.08881e-88 2.62555e-87 1.33556e-86 6.69671e-86 3.30933e-85 1.61144e-84 7.7304e-84 3.65272e-83 1.69969e-82 7.78702e-82 3.5118e-81 1.55865e-80 6.80664e-80 2.92402e-79 1.23535e-78 5.13168e-78 2.09545e-77 8.40882e-77 3.31527e-76 1.28384e-75 4.88199e-75 1.82242e-74 6.67644e-74 2.39969e-73 8.45951e-73 2.92404e-72 9.90664e-72 3.28878e-71 1.06945e-70 3.40528e-70 1.06135e-69 3.23685e-69 9.65563e-69 2.81623e-68 8.02816e-68 2.2359e-67 6.08138e-67 1.61467e-66 4.18328e-66 1.0571e-65 2.6043e-65 6.25247e-65 1.4622e-64 3.32937e-64 7.37774e-64 1.59037e-63 3.33343e-63 6.79072e-63 1.34395e-62 2.58294e-62 4.81877e-62 8.72339e-62 1.53183e-61 2.60844e-61 4.30605e-61 6.88993e-61 1.06839e-60 1.60544e-60 2.33792e-60 3.29994e-60 4.51597e-60 5.99467e-60 7.72377e-60 9.66761e-60 1.17683e-59 1.39509e-59 1.61322e-59 1.8231e-59 2.01784e-59 2.19248e-59 2.3444e-59 2.47321e-59 2.58037e-59 2.66855e-59 2.741e-59 2.80089e-59 2.85089e-59 2.89278e-59 2.9272e-59 2.9536e-59 2.97019e-59 2.97421e-59 2.96236e-59 2.93141e-59 2.87904e-59 2.80462e-59 2.70989e-59 2.59926e-59 2.4798e-59 2.36051e-59 2.25138e-59 2.16195e-59 2.10001e-59 2.07043e-59 2.07451e-59 2.10994e-59 2.17133e-59 2.25122e-59 2.34128e-59 2.43353e-59 2.52123e-59 2.59943e-59 2.66509e-59 2.7169e-59 2.7548e-59 2.77963e-59 2.79266e-59 2.79543e-59 2.78963e-59 2.77703e-59 2.75957e-59 2.73922e-59 2.71793e-59 2.69746e-59 2.67924e-59 2.66431e-59 2.6533e-59 2.64659e-59 2.64444e-59 2.64716e-59 2.65521e-59 2.66915e-59 2.68947e-59 2.71638e-59 2.74953e-59 2.78796e-59 2.83005e-59 2.87389e-59 2.91758e-59 2.95979e-59 3.00002e-59 3.03879e-59 3.07736e-59 3.1172e-59 3.1593e-59 3.20339e-59 3.24759e-59 3.28835e-59 3.32096e-59 3.34055e-59 3.34315e-59 3.32678e-59 3.29203e-59 3.24212e-59 3.18235e-59 3.119e-59 3.05811e-59 3.00419e-59 2.9594e-59 2.92313e-59 2.89215e-59 2.86126e-59 2.8243e-59 2.77525e-59 2.70929e-59 2.62354e-59 2.51742e-59 2.39248e-59 2.25189e-59 2.09965e-59 1.93978e-59 1.77573e-59 1.61007e-59 1.44457e-59 1.28054e-59 1.11926e-59 9.62392e-60 8.12063e-60 6.70831e-60 5.41344e-60 4.25935e-60 3.26234e-60 2.42927e-60 1.75692e-60 1.23324e-60 8.39725e-61 5.54486e-61 3.55008e-61 2.20379e-61 1.32654e-61 7.7439e-62 4.38518e-62 2.40951e-62 1.28506e-62 6.65476e-63 3.34749e-63 1.63629e-63 7.7757e-64 3.59369e-64 1.61605e-64 7.07409e-65 3.01563e-65 1.25248e-65 5.07028e-66 2.00149e-66 7.70755e-67 2.89672e-67 1.06292e-67 3.80956e-68 1.33415e-68 4.56724e-69 1.52895e-69 5.00708e-70 1.60467e-70 5.03441e-71 1.54678e-71 4.65555e-72 1.37316e-72 3.97026e-73 1.12564e-73 3.13041e-74 8.54181e-75 2.28757e-75 6.01449e-76 1.5529e-76 3.93844e-77 9.81426e-78 2.40355e-78 5.78586e-79 1.36621e-79 3.02478e-80 0 
0 1.02643e-113 7.94571e-113 5.99102e-112 4.47061e-111 3.30224e-110 2.41427e-109 1.74685e-108 1.25078e-107 8.86157e-107 6.21165e-106 4.30747e-105 2.95468e-104 2.0046e-103 1.345e-102 8.92381e-102 5.85408e-101 3.79663e-100 2.43399e-99 1.54228e-98 9.65794e-98 5.97618e-97 3.65363e-96 2.20664e-95 1.3164e-94 7.75586e-94 4.51232e-93 2.592e-92 1.46984e-91 8.22704e-91 4.5445e-90 2.47703e-89 1.33201e-88 7.06555e-88 3.69635e-87 1.90684e-86 9.69827e-86 4.86221e-85 2.40245e-84 1.16969e-83 5.61053e-83 2.65073e-82 1.2333e-81 5.64963e-81 2.5476e-80 1.13059e-79 4.93679e-79 2.12056e-78 8.95822e-78 3.72094e-77 1.51927e-76 6.0962e-76 2.40332e-75 9.30628e-75 3.53862e-74 1.32088e-73 4.83877e-73 1.7391e-72 6.13054e-72 2.11895e-71 7.17879e-71 2.38314e-70 7.74936e-70 2.46748e-69 7.69053e-69 2.3454e-68 6.99642e-68 2.04064e-67 5.81728e-67 1.62018e-66 4.40679e-66 1.17008e-65 3.03153e-65 7.66082e-65 1.88741e-64 4.53154e-64 1.05979e-63 2.41322e-63 5.34785e-63 1.15286e-62 2.41653e-62 4.92312e-62 9.74389e-62 1.87278e-61 3.49408e-61 6.32564e-61 1.11084e-60 1.89166e-60 3.12293e-60 4.99708e-60 7.74902e-60 1.16447e-59 1.69581e-59 2.39367e-59 3.2758e-59 4.34848e-59 5.6028e-59 7.01286e-59 8.53662e-59 1.01197e-58 1.17018e-58 1.32239e-58 1.4636e-58 1.59021e-58 1.70033e-58 1.79367e-58 1.8713e-58 1.93516e-58 1.9876e-58 2.03094e-58 2.06711e-58 2.0974e-58 2.1223e-58 2.14138e-58 2.15337e-58 2.15627e-58 2.14768e-58 2.12528e-58 2.08738e-58 2.03353e-58 1.96498e-58 1.88494e-58 1.79851e-58 1.71221e-58 1.63326e-58 1.56857e-58 1.52378e-58 1.50241e-58 1.50541e-58 1.53109e-58 1.57555e-58 1.6334e-58 1.6986e-58 1.76537e-58 1.82884e-58 1.88543e-58 1.93294e-58 1.97042e-58 1.99784e-58 2.01578e-58 2.0252e-58 2.0272e-58 2.02299e-58 2.01387e-58 2.00124e-58 1.98653e-58 1.97114e-58 1.95635e-58 1.94319e-58 1.93241e-58 1.92446e-58 1.91961e-58 1.91806e-58 1.92002e-58 1.92584e-58 1.93591e-58 1.95058e-58 1.97001e-58 1.99396e-58 2.02172e-58 2.05214e-58 2.08381e-58 2.11538e-58 2.14587e-58 2.17495e-58 2.20297e-58 2.23085e-58 2.25965e-58 2.29008e-58 2.32197e-58 2.35393e-58 2.38339e-58 2.40698e-58 2.42115e-58 2.42303e-58 2.4112e-58 2.38608e-58 2.35001e-58 2.30679e-58 2.261e-58 2.21697e-58 2.17798e-58 2.14559e-58 2.11935e-58 2.09693e-58 2.07457e-58 2.04782e-58 2.01232e-58 1.96458e-58 1.90253e-58 1.82574e-58 1.73532e-58 1.63357e-58 1.52336e-58 1.40761e-58 1.28879e-58 1.16876e-58 1.0488e-58 9.29854e-59 8.12862e-59 6.99019e-59 5.8989e-59 4.87337e-59 3.93294e-59 3.09462e-59 2.37032e-59 1.76507e-59 1.27656e-59 8.96051e-60 6.10124e-60 4.02867e-60 2.57928e-60 1.60109e-60 9.63711e-61 5.62557e-61 3.18547e-61 1.75021e-61 9.3339e-62 4.83332e-62 2.43112e-62 1.18829e-62 5.64645e-63 2.60946e-63 1.17338e-63 5.13606e-64 2.18935e-64 9.09248e-65 3.68064e-65 1.45286e-65 5.59459e-66 2.10252e-66 7.71471e-67 2.76491e-67 9.68272e-68 3.31466e-68 1.10961e-68 3.63377e-69 1.16454e-69 3.65357e-70 1.12253e-70 3.37866e-71 9.96555e-72 2.88142e-72 8.16959e-73 2.27203e-73 6.19981e-74 1.66043e-74 4.36581e-75 1.12728e-75 2.85915e-76 7.12521e-77 1.74511e-77 4.20115e-78 9.92094e-79 2.19665e-79 0 
0 7.42576e-113 5.74712e-112 4.33231e-111 3.23213e-110 2.3869e-109 1.74468e-108 1.2621e-107 9.03485e-107 6.3997e-106 4.485e-105 3.10947e-104 2.13248e-103 1.44648e-102 9.70331e-102 6.43664e-101 4.22164e-100 2.73738e-99 1.75457e-98 1.11156e-97 6.9594e-97 4.30556e-96 2.63179e-95 1.58921e-94 9.4789e-94 5.58373e-93 3.24803e-92 1.86544e-91 1.05766e-90 5.91898e-90 3.26904e-89 1.78154e-88 9.57872e-88 5.0802e-87 2.65733e-86 1.37064e-85 6.97018e-85 3.49402e-84 1.72619e-83 8.40333e-83 4.03024e-82 1.90389e-81 8.85714e-81 4.05694e-80 1.82921e-79 8.11697e-79 3.54399e-78 1.52216e-77 6.42974e-77 2.67048e-76 1.09028e-75 4.37453e-75 1.72447e-74 6.67718e-74 2.53879e-73 9.47618e-73 3.47126e-72 1.24756e-71 4.39763e-71 1.51995e-70 5.14932e-70 1.70938e-69 5.55842e-69 1.76985e-68 5.51618e-68 1.68229e-67 5.01839e-67 1.46373e-66 4.17276e-66 1.16219e-65 3.16118e-65 8.3938e-65 2.17481e-64 5.49608e-64 1.35414e-63 3.25136e-63 7.60436e-63 1.73166e-62 3.8377e-62 8.27359e-62 1.73435e-61 3.53356e-61 6.99409e-61 1.34435e-60 2.50833e-60 4.54133e-60 7.97548e-60 1.35822e-59 2.2424e-59 3.58829e-59 5.56465e-59 8.36249e-59 1.21787e-58 1.71909e-58 2.35268e-58 3.12312e-58 4.02402e-58 5.03675e-58 6.13111e-58 7.26802e-58 8.40408e-58 9.49699e-58 1.05107e-57 1.14196e-57 1.22098e-57 1.28795e-57 1.34362e-57 1.38941e-57 1.42699e-57 1.45804e-57 1.48394e-57 1.50563e-57 1.52345e-57 1.5371e-57 1.54568e-57 1.54775e-57 1.54159e-57 1.52553e-57 1.49838e-57 1.45981e-57 1.4107e-57 1.35337e-57 1.29145e-57 1.22964e-57 1.17309e-57 1.12677e-57 1.09471e-57 1.07942e-57 1.0816e-57 1.10003e-57 1.13191e-57 1.17338e-57 1.22011e-57 1.26796e-57 1.31344e-57 1.35398e-57 1.38802e-57 1.41486e-57 1.43449e-57 1.44734e-57 1.45407e-57 1.45549e-57 1.45247e-57 1.44594e-57 1.4369e-57 1.42637e-57 1.41535e-57 1.40477e-57 1.39536e-57 1.38765e-57 1.38197e-57 1.37851e-57 1.3774e-57 1.3788e-57 1.38296e-57 1.39015e-57 1.40065e-57 1.41454e-57 1.43167e-57 1.45152e-57 1.47328e-57 1.49593e-57 1.51852e-57 1.54033e-57 1.56113e-57 1.58118e-57 1.60113e-57 1.62174e-57 1.64353e-57 1.66635e-57 1.68923e-57 1.71032e-57 1.72721e-57 1.73735e-57 1.73871e-57 1.73025e-57 1.71227e-57 1.68645e-57 1.65552e-57 1.62274e-57 1.59122e-57 1.56331e-57 1.54012e-57 1.52133e-57 1.50527e-57 1.48925e-57 1.47008e-57 1.44464e-57 1.41044e-57 1.36599e-57 1.31097e-57 1.24619e-57 1.17328e-57 1.0943e-57 1.01132e-57 9.26123e-58 8.40023e-58 7.53935e-58 6.68539e-58 5.8451e-58 5.02711e-58 4.24273e-58 3.50542e-58 2.82915e-58 2.22621e-58 1.70522e-58 1.26982e-58 9.18382e-59 6.44632e-59 4.38925e-59 2.89817e-59 1.85543e-59 1.15171e-59 6.93197e-60 4.04626e-60 2.29106e-60 1.25872e-60 6.71233e-61 3.47559e-61 1.74808e-61 8.54372e-62 4.05948e-62 1.87593e-62 8.43483e-63 3.6918e-63 1.5736e-63 6.53487e-64 2.64516e-64 1.04407e-64 4.02023e-65 1.51079e-65 5.54322e-66 1.98658e-66 6.95678e-67 2.38143e-67 7.97184e-68 2.61057e-68 8.36616e-69 2.62474e-69 8.06427e-70 2.42724e-70 7.15932e-71 2.07006e-71 5.86927e-72 1.63233e-72 4.45436e-73 1.19301e-73 3.13692e-74 8.1001e-75 2.05456e-75 5.1204e-76 1.25417e-76 3.01946e-77 7.13092e-78 1.579e-78 0 
0 5.31605e-112 4.11343e-111 3.10011e-110 2.31233e-109 1.70726e-108 1.24763e-107 9.02335e-107 6.45808e-106 4.57351e-105 3.20451e-104 2.22124e-103 1.52302e-102 1.03286e-101 6.92728e-101 4.59426e-100 3.01268e-99 1.95309e-98 1.25163e-97 7.92785e-97 4.96263e-96 3.06966e-95 1.876e-94 1.13262e-93 6.75439e-93 3.97812e-92 2.31366e-91 1.32858e-90 7.53151e-90 4.21419e-89 2.32713e-88 1.26803e-87 6.81673e-87 3.61482e-86 1.89055e-85 9.75008e-85 4.95758e-84 2.48481e-83 1.22745e-82 5.97465e-82 2.86511e-81 1.35332e-80 6.29516e-80 2.88314e-79 1.29983e-78 5.76735e-78 2.51789e-77 1.08135e-76 4.56735e-76 1.89682e-75 7.74365e-75 3.10678e-74 1.22464e-73 4.74158e-73 1.80275e-72 6.72857e-72 2.46468e-71 8.85766e-71 3.12224e-70 1.07911e-69 3.65579e-69 1.21357e-68 3.94618e-68 1.2565e-67 3.91622e-67 1.19436e-66 3.56293e-66 1.03923e-65 2.9627e-65 8.25197e-65 2.24463e-64 5.96036e-64 1.54439e-63 3.9031e-63 9.61713e-63 2.30926e-62 5.40127e-62 1.23005e-61 2.72623e-61 5.87779e-61 1.23222e-60 2.51069e-60 4.96985e-60 9.55335e-60 1.78262e-59 3.22764e-59 5.66875e-59 9.65448e-59 1.59402e-58 2.5509e-58 3.95608e-58 5.94541e-58 8.6589e-58 1.22229e-57 1.67282e-57 2.22066e-57 2.86126e-57 3.58137e-57 4.35948e-57 5.16781e-57 5.97546e-57 6.75234e-57 7.47285e-57 8.11866e-57 8.68007e-57 9.15568e-57 9.55095e-57 9.87588e-57 1.01425e-56 1.03627e-56 1.05463e-56 1.07e-56 1.08263e-56 1.0923e-56 1.09838e-56 1.09983e-56 1.09546e-56 1.08407e-56 1.06482e-56 1.03746e-56 1.00264e-56 9.61978e-57 9.18072e-57 8.74241e-57 8.34149e-57 8.01311e-57 7.78588e-57 7.67771e-57 7.69335e-57 7.82427e-57 8.05061e-57 8.34487e-57 8.67644e-57 9.0159e-57 9.33849e-57 9.62603e-57 9.86738e-57 1.00577e-56 1.01968e-56 1.02879e-56 1.03356e-56 1.03456e-56 1.03242e-56 1.02778e-56 1.02137e-56 1.01391e-56 1.00611e-56 9.98615e-57 9.91952e-57 9.86494e-57 9.82473e-57 9.80023e-57 9.79237e-57 9.80232e-57 9.83174e-57 9.88266e-57 9.95693e-57 1.00553e-56 1.01765e-56 1.03171e-56 1.04711e-56 1.06316e-56 1.07915e-56 1.0946e-56 1.10933e-56 1.12353e-56 1.13766e-56 1.15226e-56 1.1677e-56 1.18387e-56 1.20008e-56 1.21504e-56 1.227e-56 1.2342e-56 1.23516e-56 1.22917e-56 1.21643e-56 1.19814e-56 1.17622e-56 1.15299e-56 1.13066e-56 1.11088e-56 1.09444e-56 1.08112e-56 1.06973e-56 1.05837e-56 1.04477e-56 1.02673e-56 1.00247e-56 9.70947e-57 9.31929e-57 8.85985e-57 8.34268e-57 7.78234e-57 7.19351e-57 6.58871e-57 5.97729e-57 5.36569e-57 4.75873e-57 4.16123e-57 3.57935e-57 3.02119e-57 2.49638e-57 2.01491e-57 1.58557e-57 1.21454e-57 9.04444e-58 6.54132e-58 4.59145e-58 3.12622e-58 2.06414e-58 1.32143e-58 8.20209e-59 4.93645e-59 2.88129e-59 1.63133e-59 8.96201e-60 4.77881e-60 2.47425e-60 1.24435e-60 6.08131e-61 2.88927e-61 1.33506e-61 6.00244e-62 2.62699e-62 1.11965e-62 4.64938e-63 1.88183e-63 7.42728e-64 2.85974e-64 1.07462e-64 3.94267e-65 1.41291e-65 4.94763e-66 1.69359e-66 5.66913e-67 1.85644e-67 5.94925e-68 1.86644e-68 5.73441e-69 1.72597e-69 5.09088e-70 1.472e-70 4.17362e-71 1.16076e-71 3.1676e-72 8.484e-73 2.23088e-73 5.76077e-74 1.46126e-74 3.64196e-75 8.92094e-76 2.14789e-76 5.07289e-77 1.12336e-77 0 
0 3.76556e-111 2.91307e-110 2.19496e-109 1.63683e-108 1.20825e-107 8.82777e-107 6.38323e-106 4.56756e-105 3.23399e-104 2.26548e-103 1.57002e-102 1.07628e-101 7.29753e-101 4.89339e-100 3.24472e-99 2.1273e-98 1.37885e-97 8.83457e-97 5.59481e-96 3.50157e-95 2.16552e-94 1.32321e-93 7.98735e-93 4.76243e-92 2.80445e-91 1.63078e-90 9.363e-90 5.30688e-89 2.96895e-88 1.63924e-87 8.93075e-87 4.80032e-86 2.54518e-85 1.33095e-84 6.86314e-84 3.48921e-83 1.74863e-82 8.63679e-82 4.2035e-81 2.01554e-80 9.51928e-80 4.42755e-79 2.02759e-78 9.1403e-78 4.05518e-77 1.77024e-76 7.602e-76 3.21066e-75 1.33329e-74 5.44273e-74 2.18351e-73 8.60658e-73 3.33215e-72 1.26683e-71 4.72813e-71 1.73186e-70 6.22388e-70 2.19381e-69 7.58218e-69 2.56865e-68 8.52687e-68 2.77269e-67 8.82858e-67 2.75171e-66 8.39229e-66 2.50359e-65 7.3027e-65 2.08197e-64 5.79912e-64 1.5775e-63 4.1891e-63 1.0855e-62 2.74352e-62 6.76039e-62 1.62341e-61 3.79737e-61 8.64855e-61 1.91696e-60 4.13333e-60 8.66579e-60 1.76583e-59 3.49568e-59 6.72014e-59 1.25405e-58 2.27077e-58 3.98848e-58 6.79326e-58 1.12169e-57 1.79514e-57 2.78415e-57 4.18437e-57 6.09437e-57 8.60314e-57 1.17745e-56 1.56309e-56 2.01402e-56 2.5209e-56 3.06859e-56 3.63751e-56 4.2059e-56 4.75256e-56 5.25948e-56 5.71376e-56 6.10856e-56 6.44293e-56 6.72072e-56 6.94898e-56 7.1362e-56 7.29074e-56 7.41959e-56 7.52741e-56 7.61596e-56 7.6838e-56 7.72637e-56 7.73656e-56 7.70582e-56 7.62587e-56 7.49069e-56 7.29864e-56 7.05419e-56 6.76879e-56 6.4606e-56 6.15295e-56 5.87157e-56 5.64114e-56 5.48174e-56 5.40594e-56 5.41708e-56 5.50914e-56 5.66819e-56 5.8749e-56 6.10777e-56 6.34615e-56 6.57266e-56 6.77452e-56 6.94393e-56 7.07749e-56 7.17513e-56 7.23899e-56 7.27242e-56 7.27942e-56 7.26433e-56 7.23181e-56 7.18682e-56 7.13447e-56 7.07977e-56 7.02725e-56 6.98055e-56 6.94231e-56 6.91415e-56 6.89699e-56 6.89149e-56 6.89845e-56 6.91905e-56 6.95473e-56 7.00676e-56 7.07567e-56 7.16064e-56 7.25915e-56 7.36711e-56 7.47955e-56 7.59165e-56 7.69994e-56 7.80321e-56 7.90276e-56 8.00184e-56 8.10426e-56 8.21251e-56 8.32595e-56 8.43968e-56 8.54457e-56 8.62855e-56 8.67902e-56 8.68581e-56 8.64378e-56 8.55447e-56 8.42618e-56 8.27248e-56 8.10956e-56 7.95291e-56 7.81415e-56 7.69883e-56 7.60534e-56 7.52539e-56 7.44561e-56 7.35014e-56 7.22348e-56 7.05321e-56 6.8319e-56 6.558e-56 6.23545e-56 5.87233e-56 5.47884e-56 5.06522e-56 4.64025e-56 4.21045e-56 3.78034e-56 3.3533e-56 2.93272e-56 2.52296e-56 2.12977e-56 1.75997e-56 1.42062e-56 1.11797e-56 8.56389e-57 6.37744e-57 4.61243e-57 3.2375e-57 2.20429e-57 1.45537e-57 9.31668e-58 5.78255e-58 3.48004e-58 2.03109e-58 1.14988e-58 6.31663e-59 3.36795e-59 1.74363e-59 8.76837e-60 4.28486e-60 2.03559e-60 9.40517e-61 4.22822e-61 1.85034e-61 7.88573e-62 3.2743e-62 1.32517e-62 5.22985e-63 2.01352e-63 7.5658e-64 2.77565e-64 9.94636e-65 3.48277e-65 1.19211e-65 3.99031e-66 1.30664e-66 4.18719e-67 1.3136e-67 4.03581e-68 1.2147e-68 3.58282e-69 1.03595e-69 2.93728e-70 8.16924e-71 2.22934e-71 5.9711e-72 1.57016e-72 4.05471e-73 1.02855e-73 2.56361e-74 6.27983e-75 1.51208e-75 3.57144e-76 7.90922e-77 0 