# vtk DataFile Version 3.0
Gray-Scott Simulation Output
ASCII
DATASET STRUCTURED_POINTS
DIMENSIONS 256 256 1
SPACING 1.0 1.0 1.0
ORIGIN 0 0 0
POINT_DATA 65536
SCALARS u double
LOOKUP_TABLE default
0 0 0 0 0 0 0 0 0 0 0 0 0 0 0 0 0 0 0 0 0 0 0 0 0 0 0 0 0 0 0 0 0 0 0 0 0 0 0 0 0 0 0 0 0 0 0 0 0 0 0 0 0 0 0 0 0 0 0 0 0 0 0 0 0 0 0 0 0 0 0 0 0 0 0 0 0 0 0 0 0 0 0 0 0 0 0 0 0 0 0 0 0 0 0 0 0 0 0 0 0 0 0 0 0 0 0 0 0 0 0 0 0 0 0 0 0 0 0 0 0 0 0 0 0 0 0 0 0 0 0 0 0 0 0 0 0 0 0 0 0 0 0 0 0 0 0 0 0 0 0 0 0 0 0 0 0 0 0 0 0 0 0 0 0 0 0 0 0 0 0 0 0 0 0 0 0 0 0 0 0 0 0 0 0 0 0 0 0 0 0 0 0 0 0 0 0 0 0 0 0 0 0 0 0 0 0 0 0 0 0 0 0 0 0 0 0 0 0 0 0 0 0 0 0 0 0 0 0 0 0 0 0 0 0 0 0 0 0 0 0 0 0 0 0 0 0 0 0 0 0 0 0 0 0 0 
0 2.56567e-178 4.95244e-177 9.43147e-176 1.7765e-174 3.3093e-173 6.09601e-172 1.11032e-170 1.99937e-169 3.55905e-168 6.26214e-167 1.08895e-165 1.87126e-164 3.17727e-163 5.32981e-162 8.83183e-161 1.44549e-159 2.3364e-158 3.72896e-157 5.87593e-156 9.14011e-155 1.40329e-153 2.12619e-152 3.17868e-151 4.68829e-150 6.82078e-149 9.78665e-148 1.38465e-146 1.93143e-145 2.65564e-144 3.5986e-143 4.80496e-142 6.32052e-141 8.18912e-140 1.04485e-138 1.31253e-137 1.62298e-136 1.97499e-135 2.36464e-134 2.78491e-133 3.22551e-132 3.67296e-131 4.11104e-130 4.52155e-129 4.88545e-128 5.18416e-127 5.40107e-126 5.52301e-125 5.54153e-124 5.45379e-123 5.26302e-122 4.97836e-121 4.61417e-120 4.18882e-119 3.72315e-118 3.23872e-117 2.7561e-116 2.29341e-115 1.86525e-114 1.482e-113 1.14975e-112 8.70506e-112 6.42863e-111 4.62803e-110 3.24598e-109 2.21665e-108 1.47288e-107 9.51606e-107 5.97388e-106 3.64113e-105 2.15304e-104 1.23408e-103 6.85052e-103 3.67955e-102 1.91042e-101 9.57812e-101 4.63204e-100 2.15827e-99 9.67712e-99 4.16999e-98 1.72454e-97 6.83492e-97 2.59205e-96 9.39065e-96 3.24444e-95 1.06704e-94 3.33416e-94 9.8781e-94 2.76899e-93 7.32778e-93 1.82658e-92 4.27875e-92 9.39728e-92 1.93071e-91 3.70298e-91 6.61778e-91 1.10053e-90 1.7018e-90 2.44762e-90 3.27952e-90 4.10775e-90 4.83793e-90 5.40442e-90 5.79317e-90 6.04069e-90 6.20976e-90 6.35588e-90 6.50378e-90 6.64581e-90 6.76033e-90 6.83571e-90 6.88319e-90 6.93128e-90 7.00787e-90 7.12348e-90 7.26468e-90 7.3983e-90 7.48101e-90 7.46857e-90 7.32262e-90 7.01668e-90 6.5441e-90 5.928e-90 5.22775e-90 4.53479e-90 3.95454e-90 3.57921e-90 3.46217e-90 3.60457e-90 3.95879e-90 4.44547e-90 4.97588e-90 5.47145e-90 5.87684e-90 6.16654e-90 6.34547e-90 6.44253e-90 6.49709e-90 6.54253e-90 6.59418e-90 6.64696e-90 6.68234e-90 6.67951e-90 6.62536e-90 6.52042e-90 6.37979e-90 6.22901e-90 6.09568e-90 6.00011e-90 5.94962e-90 5.93829e-90 5.95092e-90 5.96883e-90 5.97644e-90 5.96791e-90 5.95144e-90 5.94837e-90 5.98655e-90 6.09024e-90 6.27014e-90 6.51619e-90 6.79556e-90 7.05885e-90 7.25472e-90 7.34839e-90 7.33598e-90 7.24935e-90 7.15054e-90 7.11662e-90 7.21587e-90 7.47994e-90 7.88304e-90 8.34061e-90 8.73231e-90 8.94167e-90 8.89654e-90 8.59451e-90 8.10375e-90 7.53867e-90 7.01985e-90 6.63577e-90 6.42371e-90 6.3756e-90 6.45835e-90 6.63054e-90 6.84518e-90 7.04403e-90 7.15768e-90 7.11997e-90 6.8915e-90 6.47768e-90 5.92983e-90 5.32793e-90 4.75333e-90 4.26258e-90 3.87185e-90 3.55642e-90 3.26534e-90 2.94553e-90 2.56531e-90 2.12674e-90 1.66178e-90 1.21625e-90 8.30948e-91 5.29153e-91 3.14027e-91 1.73793e-91 8.98114e-92 4.34088e-92 1.96604e-92 8.36097e-93 3.34567e-93 1.26238e-93 4.50076e-94 1.51937e-94 4.86615e-95 1.48144e-95 4.29488e-96 1.18782e-96 3.13905e-97 7.93932e-98 1.92466e-98 4.47844e-99 1.00157e-99 2.15563e-100 4.47016e-101 8.94178e-102 1.72721e-102 3.22499e-103 5.82636e-104 1.01941e-104 1.72889e-105 2.84452e-106 4.54378e-107 7.05212e-108 1.06421e-108 1.56256e-109 2.23372e-110 3.11084e-111 4.22318e-112 5.59193e-113 7.22572e-114 9.11642e-115 1.12359e-115 1.35345e-116 1.59413e-117 1.83675e-118 2.0711e-119 2.28643e-120 2.47223e-121 2.61915e-122 2.71976e-123 2.7692e-124 2.7653e-125 2.68524e-126 0 
0 4.9506e-177 9.54844e-176 1.81697e-174 3.41971e-173 6.36526e-172 1.17161e-170 2.13226e-169 3.83657e-168 6.82406e-167 1.19975e-165 2.08465e-164 3.57948e-163 6.07295e-162 1.01793e-160 1.68546e-159 2.75641e-158 4.45183e-157 7.09973e-156 1.11788e-154 1.73753e-153 2.66559e-152 4.03565e-151 6.0287e-150 8.885e-149 1.29165e-147 1.85187e-146 2.6181e-145 3.64916e-144 5.01364e-143 6.78872e-142 9.05763e-141 1.19056e-139 1.54137e-138 1.96515e-137 2.46675e-136 3.04791e-135 3.7062e-134 4.4341e-133 5.21831e-132 6.0394e-131 6.87211e-130 7.68607e-129 8.44735e-128 9.1205e-127 9.67105e-126 1.00683e-124 1.02882e-123 1.03152e-122 1.01445e-121 9.78259e-121 9.24682e-120 8.56423e-119 7.7692e-118 6.9006e-117 5.99848e-116 5.101e-115 4.24168e-114 3.44737e-113 2.73714e-112 2.12202e-111 1.60553e-110 1.18486e-109 8.52407e-109 5.97449e-108 4.07717e-107 2.7073e-106 1.74798e-105 1.0966e-104 6.67944e-104 3.94704e-103 2.26089e-102 1.25424e-101 6.73247e-101 3.49329e-100 1.7503e-99 8.45933e-99 3.93914e-98 1.76515e-97 7.60167e-97 3.14191e-96 1.24452e-95 4.71698e-95 1.70795e-94 5.89768e-94 1.93862e-93 6.05442e-93 1.79284e-92 5.02318e-92 1.3287e-91 3.31057e-91 7.75172e-91 1.70181e-90 3.49518e-90 6.70131e-90 1.19727e-89 1.99054e-89 3.07742e-89 4.42539e-89 5.92878e-89 7.42555e-89 8.74523e-89 9.76929e-89 1.04723e-88 1.092e-88 1.12257e-88 1.14896e-88 1.17565e-88 1.20128e-88 1.22197e-88 1.23561e-88 1.24425e-88 1.25301e-88 1.26691e-88 1.28785e-88 1.31339e-88 1.33755e-88 1.35249e-88 1.35023e-88 1.32385e-88 1.26855e-88 1.18314e-88 1.0718e-88 9.45268e-89 8.20067e-89 7.15241e-89 6.47443e-89 6.26313e-89 6.52057e-89 7.1607e-89 8.04014e-89 8.99859e-89 9.89413e-89 1.06268e-88 1.11506e-88 1.14742e-88 1.165e-88 1.17488e-88 1.18308e-88 1.19237e-88 1.20185e-88 1.20817e-88 1.20759e-88 1.19776e-88 1.17878e-88 1.15339e-88 1.1262e-88 1.10217e-88 1.08497e-88 1.07591e-88 1.07391e-88 1.07621e-88 1.07944e-88 1.08079e-88 1.07923e-88 1.07623e-88 1.07566e-88 1.08254e-88 1.10125e-88 1.13372e-88 1.17812e-88 1.22854e-88 1.27606e-88 1.31142e-88 1.32835e-88 1.32615e-88 1.31057e-88 1.2928e-88 1.28674e-88 1.30471e-88 1.3524e-88 1.42515e-88 1.50771e-88 1.57836e-88 1.61611e-88 1.60794e-88 1.55343e-88 1.46487e-88 1.36289e-88 1.26925e-88 1.19991e-88 1.16161e-88 1.15289e-88 1.1678e-88 1.19886e-88 1.23759e-88 1.27346e-88 1.29394e-88 1.2871e-88 1.2458e-88 1.17103e-88 1.07203e-88 9.63237e-89 8.59345e-89 7.70579e-89 6.99874e-89 6.42786e-89 5.90123e-89 5.32301e-89 4.63595e-89 3.84359e-89 3.0036e-89 2.19863e-89 1.50238e-89 9.56923e-90 5.68024e-90 3.14448e-90 1.62546e-90 7.8589e-91 3.56065e-91 1.51481e-91 6.06399e-92 2.28902e-92 8.16468e-93 2.75753e-93 8.83594e-94 2.69134e-94 7.80659e-95 2.16018e-95 5.71185e-96 1.44546e-96 3.50611e-97 8.16301e-98 1.82669e-98 3.93384e-99 8.16265e-100 1.63381e-100 3.15786e-101 5.90001e-102 1.0666e-102 1.86739e-103 3.16909e-104 5.2175e-105 8.33987e-106 1.29525e-106 1.95593e-107 2.8738e-108 4.11099e-109 5.72919e-110 7.78315e-111 1.03129e-111 1.33353e-112 1.68365e-113 2.07654e-114 2.50312e-115 2.95036e-116 3.40181e-117 3.8386e-118 4.24074e-119 4.58867e-120 4.8649e-121 5.05546e-122 5.15111e-123 5.14763e-124 5.0022e-125 0 
0 9.42438e-176 1.81628e-174 3.45344e-173 6.49452e-172 1.20789e-170 2.22151e-169 4.03983e-168 7.2631e-167 1.29086e-165 2.26768e-164 3.93716e-163 6.75505e-162 1.14516e-160 1.91798e-159 3.17325e-158 5.1855e-157 8.36847e-156 1.33356e-154 2.09809e-153 3.25856e-152 4.99518e-151 7.55674e-150 1.128e-148 1.66115e-147 2.41302e-146 3.45696e-145 4.88355e-144 6.80159e-143 9.33768e-142 1.2634e-140 1.68438e-139 2.2123e-138 2.86202e-137 3.64614e-136 4.57337e-135 5.64659e-134 6.86099e-133 8.20235e-132 9.64579e-131 1.11552e-129 1.26839e-128 1.41757e-127 1.55682e-126 1.67964e-125 1.77973e-124 1.85148e-123 1.89052e-122 1.8941e-121 1.86141e-120 1.79371e-119 1.69425e-118 1.56805e-117 1.42147e-116 1.26164e-115 1.09593e-114 9.31299e-114 7.73865e-113 6.28507e-112 4.98673e-111 3.86337e-110 2.92101e-109 2.15418e-108 1.54869e-107 1.08473e-106 7.39752e-106 4.90875e-105 3.16723e-104 1.98564e-103 1.20867e-102 7.13763e-102 4.08582e-101 2.26517e-100 1.21511e-99 6.30087e-99 3.15505e-98 1.52391e-97 7.09185e-97 3.17596e-96 1.36692e-95 5.64641e-95 2.23526e-94 8.46729e-94 3.06417e-93 1.05751e-92 3.47426e-92 1.08447e-91 3.20973e-91 8.98868e-91 2.37653e-90 5.91869e-90 1.38529e-89 3.04007e-89 6.24141e-89 1.19627e-88 2.13666e-88 3.55144e-88 5.48944e-88 7.89261e-88 1.05726e-87 1.32408e-87 1.55936e-87 1.74197e-87 1.86736e-87 1.94725e-87 2.00177e-87 2.04879e-87 2.09631e-87 2.14193e-87 2.17879e-87 2.20315e-87 2.21864e-87 2.23438e-87 2.25927e-87 2.29668e-87 2.34225e-87 2.38533e-87 2.41197e-87 2.40793e-87 2.36087e-87 2.26227e-87 2.11e-87 1.91154e-87 1.68601e-87 1.46288e-87 1.27608e-87 1.15528e-87 1.11765e-87 1.16356e-87 1.27767e-87 1.43443e-87 1.60527e-87 1.7649e-87 1.89553e-87 1.98893e-87 2.04668e-87 2.07807e-87 2.09571e-87 2.11032e-87 2.12682e-87 2.1436e-87 2.15473e-87 2.15358e-87 2.13598e-87 2.10212e-87 2.05689e-87 2.00851e-87 1.96581e-87 1.93529e-87 1.91925e-87 1.91576e-87 1.91989e-87 1.92564e-87 1.92802e-87 1.92518e-87 1.9198e-87 1.91875e-87 1.93098e-87 1.96428e-87 2.02207e-87 2.10112e-87 2.19088e-87 2.27548e-87 2.33845e-87 2.36863e-87 2.36479e-87 2.33714e-87 2.30562e-87 2.29495e-87 2.32703e-87 2.41199e-87 2.5415e-87 2.68842e-87 2.81412e-87 2.88126e-87 2.86668e-87 2.76963e-87 2.61199e-87 2.43048e-87 2.26377e-87 2.1403e-87 2.07205e-87 2.05647e-87 2.08296e-87 2.13823e-87 2.20715e-87 2.27097e-87 2.30739e-87 2.29513e-87 2.2215e-87 2.08822e-87 1.91176e-87 1.7178e-87 1.53251e-87 1.37413e-87 1.24792e-87 1.146e-87 1.05202e-87 9.48895e-88 8.26423e-88 6.85214e-88 5.3552e-88 3.92055e-88 2.67948e-88 1.70702e-88 1.01352e-88 5.61215e-89 2.90191e-89 1.4035e-89 6.36107e-90 2.70721e-90 1.08417e-90 4.09422e-91 1.46102e-91 4.93671e-92 1.58263e-92 4.82296e-93 1.39969e-93 3.87519e-94 1.02522e-94 2.5959e-95 6.30022e-96 1.46769e-96 3.28628e-97 7.08141e-98 1.47028e-98 2.94468e-99 5.69512e-100 1.06473e-100 1.92603e-101 3.37427e-102 5.73013e-103 9.44014e-104 1.50996e-104 2.34665e-105 3.54603e-106 5.21365e-107 7.46327e-108 1.04082e-108 1.41494e-109 1.87614e-110 2.42769e-111 3.06723e-112 3.78568e-113 4.56661e-114 5.38637e-115 6.21503e-116 7.01809e-117 7.75892e-118 8.40159e-119 8.91383e-120 9.26977e-121 9.45208e-122 9.45263e-123 9.19224e-124 0 
0 1.77447e-174 3.41707e-173 6.49198e-172 1.21991e-170 2.26707e-169 4.1662e-168 7.57025e-167 1.35996e-165 2.41512e-164 4.23936e-163 7.35461e-162 1.26085e-160 2.13581e-159 3.57436e-158 5.90907e-157 9.64865e-156 1.55591e-154 2.47748e-153 3.89482e-152 6.04438e-151 9.25849e-150 1.39955e-148 2.08751e-147 3.0718e-146 4.45873e-145 6.38281e-144 9.00993e-143 1.2539e-141 1.72013e-140 2.3256e-139 3.09814e-138 4.0661e-137 5.25626e-136 6.6913e-135 8.38661e-134 1.03469e-132 1.25628e-131 1.50077e-130 1.76355e-129 2.03801e-128 2.31557e-127 2.586e-126 2.83794e-125 3.05958e-124 3.23951e-123 3.36766e-122 3.43616e-121 3.44017e-120 3.37835e-119 3.25311e-118 3.07052e-117 2.83977e-116 2.57247e-115 2.28161e-114 1.98052e-113 1.68182e-112 1.39653e-111 1.13342e-110 8.98655e-110 6.95731e-109 5.25665e-108 3.874e-107 2.78321e-106 1.94809e-105 1.32763e-104 8.8038e-104 5.67661e-103 3.5565e-102 2.16343e-101 1.27675e-100 7.30381e-100 4.04661e-99 2.16935e-98 1.12419e-97 5.62569e-97 2.71557e-96 1.26298e-95 5.65261e-95 2.43142e-94 1.00377e-93 3.97137e-93 1.50352e-92 5.43798e-92 1.87574e-91 6.15918e-91 1.92156e-90 5.68445e-90 1.59114e-89 4.20489e-89 1.04676e-88 2.44895e-88 5.37222e-88 1.10255e-87 2.11253e-87 3.77209e-87 6.26818e-87 9.68666e-87 1.3925e-86 1.86513e-86 2.33566e-86 2.75061e-86 3.07274e-86 3.29401e-86 3.435e-86 3.5312e-86 3.61408e-86 3.69775e-86 3.7781e-86 3.84304e-86 3.88609e-86 3.91358e-86 3.94154e-86 3.98564e-86 4.05174e-86 4.13218e-86 4.20817e-86 4.25514e-86 4.248e-86 4.16498e-86 3.99107e-86 3.72253e-86 3.37256e-86 2.97492e-86 2.58153e-86 2.25222e-86 2.0393e-86 1.97303e-86 2.05402e-86 2.25525e-86 2.53167e-86 2.83291e-86 3.1144e-86 3.34477e-86 3.50954e-86 3.61149e-86 3.66693e-86 3.69809e-86 3.72383e-86 3.7528e-86 3.78219e-86 3.8016e-86 3.79936e-86 3.76817e-86 3.70842e-86 3.62873e-86 3.54357e-86 3.4685e-86 3.41493e-86 3.38686e-86 3.38083e-86 3.38817e-86 3.39829e-86 3.40242e-86 3.39735e-86 3.38779e-86 3.38588e-86 3.40738e-86 3.466e-86 3.56777e-86 3.70697e-86 3.86503e-86 4.01402e-86 4.12495e-86 4.17819e-86 4.17154e-86 4.12303e-86 4.06772e-86 4.04913e-86 4.10579e-86 4.25549e-86 4.48358e-86 4.74222e-86 4.96346e-86 5.08157e-86 5.05583e-86 4.88491e-86 4.60734e-86 4.28772e-86 3.99415e-86 3.77664e-86 3.65634e-86 3.6288e-86 3.67538e-86 3.77265e-86 3.89398e-86 4.00632e-86 4.07036e-86 4.04863e-86 3.91878e-86 3.68378e-86 3.37261e-86 3.03052e-86 2.70362e-86 2.42407e-86 2.20122e-86 2.02122e-86 1.8553e-86 1.67336e-86 1.45739e-86 1.20844e-86 9.44539e-87 6.91596e-87 4.7275e-87 3.01237e-87 1.78897e-87 9.90869e-88 5.12505e-88 2.4795e-88 1.12418e-88 4.78617e-89 1.9175e-89 7.24421e-90 2.58623e-90 8.74278e-91 2.80415e-91 8.5497e-92 2.48252e-92 6.87674e-93 1.8203e-93 4.61163e-94 1.11987e-94 2.61035e-95 5.84825e-96 1.26096e-96 2.61966e-97 5.2499e-98 1.01598e-98 1.90063e-99 3.44033e-100 6.03109e-101 1.02486e-101 1.68952e-102 2.70419e-103 4.20544e-104 6.35912e-105 9.35601e-106 1.34022e-106 1.87033e-107 2.54438e-108 3.37606e-109 4.37161e-110 5.52713e-111 6.82659e-112 8.24065e-113 9.72687e-114 1.12313e-114 1.26916e-115 1.40415e-116 1.52155e-117 1.6155e-118 1.68123e-119 1.71555e-120 1.71691e-121 1.67082e-122 0 
0 3.3042e-173 6.3578e-172 1.20694e-170 2.26616e-169 4.20806e-168 7.72705e-167 1.40294e-165 2.51833e-164 4.46873e-163 7.83798e-162 1.35869e-160 2.32748e-159 3.93952e-158 6.58779e-157 1.08823e-155 1.77554e-154 2.86094e-153 4.55196e-152 7.15054e-151 1.10884e-149 1.69715e-148 2.5635e-147 3.82066e-146 5.61784e-145 8.14807e-144 1.16553e-142 1.64399e-141 2.28619e-140 3.13385e-139 4.23372e-138 5.63586e-137 7.39108e-136 9.54728e-135 1.21447e-133 1.52102e-132 1.87514e-131 2.27502e-130 2.71574e-129 3.1889e-128 3.68245e-127 4.18087e-126 4.6657e-125 5.11649e-124 5.51203e-123 5.83192e-122 6.05819e-121 6.17693e-120 6.17966e-119 6.06422e-118 5.83522e-117 5.50374e-116 5.0865e-115 4.60444e-114 4.08093e-113 3.53989e-112 3.00389e-111 2.49258e-110 2.02156e-109 1.60172e-108 1.23918e-107 9.35631e-107 6.89061e-106 4.94706e-105 3.46032e-104 2.35664e-103 1.56169e-102 1.00629e-101 6.30045e-101 3.83008e-100 2.25885e-99 1.29137e-98 7.15014e-98 3.8307e-97 1.98388e-96 9.92158e-96 4.78629e-95 2.22469e-94 9.95091e-94 4.27777e-93 1.76497e-92 6.97904e-92 2.64072e-91 9.54574e-91 3.29087e-90 1.08002e-89 3.36777e-89 9.95777e-89 2.78595e-88 7.35905e-88 1.83115e-87 4.28231e-87 9.39042e-87 1.92652e-86 3.6901e-86 6.58708e-86 1.09432e-85 1.69078e-85 2.43018e-85 3.25462e-85 4.07542e-85 4.79932e-85 5.36141e-85 5.74763e-85 5.9938e-85 6.16169e-85 6.30616e-85 6.45192e-85 6.59187e-85 6.70508e-85 6.78029e-85 6.82854e-85 6.87768e-85 6.95495e-85 7.07049e-85 7.21095e-85 7.34355e-85 7.42547e-85 7.41298e-85 7.26812e-85 6.9647e-85 6.49625e-85 5.88581e-85 5.19229e-85 4.50626e-85 3.93205e-85 3.56083e-85 3.44536e-85 3.58671e-85 3.93772e-85 4.41985e-85 4.94527e-85 5.43627e-85 5.83813e-85 6.12565e-85 6.30364e-85 6.40052e-85 6.45497e-85 6.49981e-85 6.55013e-85 6.60105e-85 6.6345e-85 6.63022e-85 6.57555e-85 6.47126e-85 6.33238e-85 6.18413e-85 6.05359e-85 5.96056e-85 5.91196e-85 5.9017e-85 5.9146e-85 5.93222e-85 5.93932e-85 5.93034e-85 5.91355e-85 5.9101e-85 5.94748e-85 6.04957e-85 6.22683e-85 6.46929e-85 6.74461e-85 7.00414e-85 7.19743e-85 7.2903e-85 7.27894e-85 7.19473e-85 7.09873e-85 7.06671e-85 7.1657e-85 7.42663e-85 7.82393e-85 8.27432e-85 8.65948e-85 8.865e-85 8.82004e-85 8.52231e-85 8.03887e-85 7.48218e-85 6.9708e-85 6.59181e-85 6.38208e-85 6.33393e-85 6.41492e-85 6.58426e-85 6.79553e-85 6.99113e-85 7.10252e-85 7.06443e-85 6.83788e-85 6.42804e-85 5.8853e-85 5.2885e-85 4.71799e-85 4.22994e-85 3.84071e-85 3.52627e-85 3.2365e-85 2.91899e-85 2.54228e-85 2.10814e-85 1.64792e-85 1.20678e-85 8.25057e-86 5.25835e-86 3.12353e-86 1.7305e-86 8.95322e-87 4.33294e-87 1.96518e-87 8.36981e-88 3.35454e-88 1.26786e-88 4.5283e-89 1.5315e-89 4.91446e-90 1.49913e-90 4.35514e-91 1.20704e-91 3.19679e-92 8.10339e-93 1.96891e-93 4.59204e-94 1.02941e-94 2.22086e-95 4.61665e-96 9.25762e-97 1.79269e-97 3.35574e-98 6.07809e-99 1.06621e-99 1.81297e-100 2.99072e-101 4.79001e-102 7.45417e-103 1.12792e-103 1.66059e-104 2.38036e-105 3.32417e-106 4.52528e-107 6.00862e-108 7.78588e-109 9.85077e-110 1.21753e-110 1.47077e-111 1.73726e-112 2.00738e-113 2.27002e-114 2.51325e-115 2.72536e-116 2.89572e-117 3.01574e-118 3.07954e-119 3.08424e-120 3.00361e-121 0 
0 6.08411e-172 1.16975e-170 2.21884e-169 4.16282e-168 7.72388e-167 1.41718e-165 2.57103e-164 4.61146e-163 8.1765e-162 1.433e-160 2.48212e-159 4.24861e-158 7.18562e-157 1.20067e-155 1.98182e-154 3.23099e-153 5.20208e-152 8.27047e-151 1.29818e-149 2.01153e-148 3.07641e-147 4.64326e-146 6.91504e-145 1.016e-143 1.47247e-142 2.10466e-141 2.96639e-140 4.122e-139 5.64606e-138 7.62184e-137 1.01384e-135 1.32859e-134 1.71488e-133 2.17979e-132 2.72796e-131 3.36057e-130 4.07417e-129 4.85981e-128 5.70229e-127 6.57997e-126 7.46505e-125 8.3246e-124 9.12221e-123 9.82023e-122 1.03826e-120 1.07775e-119 1.09808e-118 1.09777e-117 1.07649e-116 1.03509e-115 9.75594e-115 9.00991e-114 8.15022e-113 7.21846e-112 6.25703e-111 5.30588e-110 4.39966e-109 3.56578e-108 2.82329e-107 2.18275e-106 1.64693e-105 1.21208e-104 8.69613e-104 6.07857e-103 4.13701e-102 2.73968e-101 1.76418e-100 1.10383e-99 6.70587e-99 3.95234e-98 2.25807e-97 1.24947e-96 6.68982e-96 3.46243e-95 1.73052e-94 8.34314e-94 3.87559e-93 1.73249e-92 7.44339e-92 3.06931e-91 1.21297e-90 4.58706e-90 1.65724e-89 5.71022e-89 1.87305e-88 5.83765e-88 1.72522e-87 4.82448e-87 1.2738e-86 3.16822e-86 7.40614e-86 1.62343e-85 3.32942e-85 6.37519e-85 1.13769e-84 1.88959e-84 2.91892e-84 4.19473e-84 5.61717e-84 7.03331e-84 8.28238e-84 9.25248e-84 9.91925e-84 1.03443e-83 1.06341e-83 1.08832e-83 1.11343e-83 1.13754e-83 1.15706e-83 1.17006e-83 1.17844e-83 1.18698e-83 1.20037e-83 1.22034e-83 1.2446e-83 1.26748e-83 1.28162e-83 1.27945e-83 1.25445e-83 1.2021e-83 1.12127e-83 1.01596e-83 8.96334e-84 7.78007e-84 6.78976e-84 6.14965e-84 5.95067e-84 6.19466e-84 6.80027e-84 7.632e-84 8.5384e-84 9.38544e-84 1.00788e-83 1.0575e-83 1.08824e-83 1.10498e-83 1.11439e-83 1.12212e-83 1.13076e-83 1.13949e-83 1.14519e-83 1.14438e-83 1.13491e-83 1.1169e-83 1.09296e-83 1.06744e-83 1.04498e-83 1.02901e-83 1.02069e-83 1.01896e-83 1.0212e-83 1.02424e-83 1.02545e-83 1.02387e-83 1.02096e-83 1.02034e-83 1.02677e-83 1.04435e-83 1.07489e-83 1.11666e-83 1.16409e-83 1.2088e-83 1.24211e-83 1.25813e-83 1.25622e-83 1.24176e-83 1.22528e-83 1.21982e-83 1.23693e-83 1.28191e-83 1.35035e-83 1.42792e-83 1.49424e-83 1.52961e-83 1.52185e-83 1.47055e-83 1.38727e-83 1.29138e-83 1.20328e-83 1.13797e-83 1.1018e-83 1.09347e-83 1.1074e-83 1.13656e-83 1.17295e-83 1.20663e-83 1.22579e-83 1.21918e-83 1.1801e-83 1.1094e-83 1.01577e-83 9.12794e-84 8.14321e-84 7.30045e-84 6.62805e-84 6.08476e-84 5.58427e-84 5.03623e-84 4.38632e-84 3.63747e-84 2.84368e-84 2.08274e-84 1.42418e-84 9.07855e-85 5.39402e-85 2.98918e-85 1.54698e-85 7.489e-86 3.39774e-86 1.44764e-86 5.80427e-87 2.19464e-87 7.84183e-88 2.65336e-88 8.51842e-89 2.59978e-89 7.55646e-90 2.09538e-90 5.5525e-91 1.40825e-91 3.42359e-92 7.98932e-93 1.79203e-93 3.86843e-94 8.04641e-95 1.6145e-95 3.12834e-96 5.8596e-97 1.06199e-97 1.86412e-98 3.17179e-99 5.23565e-100 8.39106e-101 1.30668e-101 1.9785e-102 2.91483e-103 4.18107e-104 5.84285e-105 7.95948e-106 1.05758e-106 1.37135e-107 1.73625e-108 2.14747e-109 2.59595e-110 3.06848e-111 3.54813e-112 4.0152e-113 4.44863e-114 4.82755e-115 5.13303e-116 5.34964e-117 5.4668e-118 5.47913e-119 5.33974e-120 0 
0 1.10768e-170 2.12799e-169 4.03327e-168 7.56092e-167 1.40178e-165 2.56995e-164 4.65871e-163 8.34939e-162 1.47925e-160 2.59048e-159 4.4835e-158 7.66833e-157 1.29592e-155 2.16371e-154 3.56864e-153 5.81349e-152 9.3528e-151 1.48579e-149 2.33038e-148 3.60814e-147 5.514e-146 8.31594e-145 1.23751e-143 1.81683e-142 2.63109e-141 3.75787e-140 5.29245e-139 7.34865e-138 1.00581e-136 1.35675e-135 1.80336e-134 2.36143e-133 3.04575e-132 3.86856e-131 4.8378e-130 5.95522e-129 7.21442e-128 8.59922e-127 1.00825e-125 1.16258e-124 1.31798e-123 1.46866e-122 1.6082e-121 1.72999e-120 1.82773e-119 1.89588e-118 1.93024e-117 1.9283e-116 1.88956e-115 1.8156e-114 1.71001e-113 1.57813e-112 1.42654e-111 1.26256e-110 1.09363e-109 9.26734e-109 7.67917e-108 6.2194e-107 4.92095e-106 3.80189e-105 2.86664e-104 2.10831e-103 1.51159e-102 1.05589e-101 7.18148e-101 4.75268e-100 3.0584e-99 1.91236e-98 1.16102e-97 6.83847e-97 3.9045e-96 2.15912e-95 1.1553e-94 5.97571e-94 2.98482e-93 1.43816e-92 6.67658e-92 2.98285e-91 1.28078e-90 5.27832e-90 2.08478e-89 7.87958e-89 2.84523e-88 9.79839e-88 3.21237e-87 1.00068e-86 2.95591e-86 8.26215e-86 2.18046e-85 5.42096e-85 1.26671e-84 2.77557e-84 5.69031e-84 1.08924e-83 1.94326e-83 3.22677e-83 4.98351e-83 7.16059e-83 9.58768e-83 1.2004e-82 1.41355e-82 1.57913e-82 1.69297e-82 1.76556e-82 1.81503e-82 1.85751e-82 1.90029e-82 1.94136e-82 1.97464e-82 1.99686e-82 2.01124e-82 2.02592e-82 2.04887e-82 2.08302e-82 2.12445e-82 2.1635e-82 2.18761e-82 2.18392e-82 2.14124e-82 2.0519e-82 1.914e-82 1.73433e-82 1.53025e-82 1.32841e-82 1.15951e-82 1.05035e-82 1.01644e-82 1.0581e-82 1.16143e-82 1.30333e-82 1.45797e-82 1.60248e-82 1.72079e-82 1.80548e-82 1.85797e-82 1.88658e-82 1.90266e-82 1.91583e-82 1.93051e-82 1.94529e-82 1.9549e-82 1.95342e-82 1.93718e-82 1.90643e-82 1.86562e-82 1.82216e-82 1.78397e-82 1.75684e-82 1.74276e-82 1.73988e-82 1.74374e-82 1.74891e-82 1.75094e-82 1.74822e-82 1.7432e-82 1.74213e-82 1.75306e-82 1.783e-82 1.83502e-82 1.90618e-82 1.98698e-82 2.06317e-82 2.11994e-82 2.14728e-82 2.14407e-82 2.11952e-82 2.09155e-82 2.08235e-82 2.11158e-82 2.18827e-82 2.30488e-82 2.437e-82 2.54992e-82 2.61013e-82 2.59686e-82 2.50946e-82 2.36759e-82 2.20423e-82 2.05413e-82 1.94283e-82 1.88116e-82 1.86692e-82 1.89061e-82 1.94026e-82 2.00222e-82 2.05958e-82 2.09218e-82 2.08085e-82 2.01415e-82 1.89355e-82 1.73382e-82 1.55809e-82 1.39e-82 1.24609e-82 1.13121e-82 1.03838e-82 9.52888e-83 8.59334e-83 7.48446e-83 6.20705e-83 4.853e-83 3.55487e-83 2.43123e-83 1.55012e-83 9.21217e-84 5.10637e-84 2.64342e-84 1.28009e-84 5.8097e-85 2.47618e-85 9.93196e-86 3.75689e-86 1.34297e-86 4.54612e-87 1.46018e-87 4.45857e-88 1.29657e-88 3.5972e-89 9.5372e-90 2.42018e-90 5.88697e-91 1.37457e-91 3.08498e-92 6.66343e-93 1.38683e-93 2.78436e-94 5.39842e-95 1.01179e-95 1.83492e-96 3.2229e-97 5.48726e-98 9.06367e-99 1.45356e-99 2.26502e-100 3.43184e-101 5.05938e-102 7.26212e-103 1.01554e-103 1.38437e-104 1.84069e-105 2.38844e-106 3.02608e-107 3.7454e-108 4.53079e-109 5.35929e-110 6.20141e-111 7.02276e-112 7.7864e-113 8.45569e-114 8.99722e-115 9.38369e-116 9.59616e-117 9.62481e-118 9.38667e-119 0 
0 1.99376e-169 3.82723e-168 7.24819e-167 1.3577e-165 2.51515e-164 4.60753e-163 8.34578e-162 1.49456e-160 2.64583e-159 4.62976e-158 8.00674e-157 1.36836e-155 2.31068e-154 3.85498e-153 6.35315e-152 1.03416e-150 1.66247e-149 2.63897e-148 4.13588e-147 6.39869e-146 9.77103e-145 1.47249e-143 2.18956e-142 3.21211e-141 4.64815e-140 6.63368e-139 9.33556e-138 1.29527e-136 1.7715e-135 2.38781e-134 3.17142e-133 4.14973e-132 5.34826e-131 6.788e-130 8.48237e-129 1.04338e-127 1.26306e-126 1.50439e-125 1.76258e-124 2.03087e-123 2.30065e-122 2.5618e-121 2.80315e-120 3.01324e-119 3.18115e-118 3.29739e-117 3.35473e-116 3.34895e-115 3.27931e-114 3.1487e-113 2.96348e-112 2.73298e-111 2.46871e-110 2.1834e-109 1.88994e-108 1.6004e-107 1.32522e-106 1.07256e-105 8.48051e-105 6.54749e-104 4.93347e-103 3.62593e-102 2.59793e-101 1.81351e-100 1.23261e-99 8.15199e-99 5.24245e-98 3.27588e-97 1.98754e-96 1.16992e-95 6.67553e-95 3.68913e-94 1.97273e-93 1.01976e-92 5.09049e-92 2.45124e-91 1.13729e-90 5.07801e-90 2.17915e-89 8.97549e-89 3.54306e-88 1.33839e-87 4.83016e-87 1.66253e-86 5.44775e-86 1.69618e-85 5.0079e-85 1.39912e-84 3.69077e-84 9.17191e-84 2.14233e-83 4.69245e-83 9.61682e-83 1.84027e-82 3.28222e-82 5.4488e-82 8.41358e-82 1.20872e-81 1.61824e-81 2.02595e-81 2.38563e-81 2.6651e-81 2.8573e-81 2.97988e-81 3.06339e-81 3.13501e-81 3.20708e-81 3.27627e-81 3.33238e-81 3.36993e-81 3.39433e-81 3.41929e-81 3.45818e-81 3.51593e-81 3.58588e-81 3.6518e-81 3.69248e-81 3.68622e-81 3.6142e-81 3.46344e-81 3.23077e-81 2.92766e-81 2.5834e-81 2.24296e-81 1.95809e-81 1.77403e-81 1.71689e-81 1.78721e-81 1.96156e-81 2.20096e-81 2.46183e-81 2.70564e-81 2.90526e-81 3.0482e-81 3.13683e-81 3.18518e-81 3.21235e-81 3.23454e-81 3.2592e-81 3.28396e-81 3.29996e-81 3.29727e-81 3.26974e-81 3.21783e-81 3.14905e-81 3.07587e-81 3.01164e-81 2.96609e-81 2.94251e-81 2.93779e-81 2.94436e-81 2.95307e-81 2.95643e-81 2.95177e-81 2.94325e-81 2.94138e-81 2.95975e-81 3.01017e-81 3.0978e-81 3.21767e-81 3.3538e-81 3.48216e-81 3.57783e-81 3.62396e-81 3.61866e-81 3.57746e-81 3.53049e-81 3.51517e-81 3.56456e-81 3.69383e-81 3.89029e-81 4.11279e-81 4.30293e-81 4.40426e-81 4.38185e-81 4.2346e-81 3.99563e-81 3.72045e-81 3.46756e-81 3.28e-81 3.17603e-81 3.15194e-81 3.19178e-81 3.27538e-81 3.37973e-81 3.4763e-81 3.53114e-81 3.51195e-81 3.39939e-81 3.19594e-81 2.92648e-81 2.62997e-81 2.34624e-81 2.10322e-81 1.90916e-81 1.7523e-81 1.60789e-81 1.44997e-81 1.26288e-81 1.0474e-81 8.18992e-82 6.00001e-82 4.1042e-82 2.6173e-82 1.55578e-82 8.62596e-83 4.46667e-83 2.16367e-83 9.82308e-84 4.18824e-84 1.68054e-84 6.35942e-85 2.27427e-85 7.70207e-86 2.475e-86 7.56087e-87 2.19982e-87 6.10632e-88 1.61981e-88 4.11269e-89 1.00094e-89 2.33846e-90 5.25127e-91 1.13492e-91 2.36346e-92 4.748e-93 9.21122e-94 1.72747e-94 3.1348e-95 5.50951e-96 9.38641e-97 1.55142e-97 2.48967e-98 3.88208e-99 5.88582e-100 8.68294e-101 1.24717e-101 1.74522e-102 2.38069e-103 3.16758e-104 4.11302e-105 5.21469e-106 6.45875e-107 7.81858e-108 9.25479e-109 1.07166e-109 1.21446e-110 1.34747e-111 1.46434e-112 1.55925e-113 1.6274e-114 1.66545e-115 1.67163e-116 1.63144e-117 0 
0 3.54751e-168 6.80444e-167 1.28764e-165 2.41004e-164 4.46111e-163 8.16592e-162 1.47796e-160 2.64466e-159 4.67817e-158 8.17963e-157 1.41349e-155 2.41378e-154 4.07286e-153 6.78959e-152 1.11808e-150 1.81859e-149 2.92123e-148 4.63353e-147 7.25622e-146 1.12176e-144 1.71165e-143 2.57747e-142 3.82973e-141 5.61397e-140 8.11762e-139 1.15764e-137 1.62791e-136 2.25695e-135 3.08442e-134 4.15436e-133 5.51356e-132 7.20897e-131 9.28411e-130 1.17746e-128 1.47027e-127 1.80718e-126 2.18605e-125 2.60181e-124 3.04609e-123 3.50717e-122 3.97016e-121 4.41758e-120 4.83023e-119 5.18848e-118 5.47365e-117 5.66955e-116 5.76399e-115 5.74993e-114 5.62634e-113 5.3984e-112 5.07724e-111 4.67902e-110 4.2236e-109 3.73286e-108 3.22888e-107 2.73232e-106 2.26094e-105 1.82862e-104 1.44486e-103 1.11476e-102 8.39395e-102 6.16509e-101 4.41425e-100 3.07935e-99 2.0916e-98 1.38238e-97 8.88415e-97 5.54788e-96 3.36384e-95 1.97878e-94 1.12837e-93 6.23186e-93 3.33037e-92 1.72049e-91 8.58325e-91 4.13063e-90 1.91534e-89 8.54697e-89 3.66568e-88 1.50897e-87 5.9533e-87 2.24762e-86 8.10718e-86 2.78902e-85 9.13434e-85 2.8426e-84 8.38866e-84 2.34256e-83 6.17676e-83 1.53434e-82 3.5824e-82 7.84378e-82 1.60697e-81 3.07414e-81 5.48138e-81 9.09744e-81 1.40447e-80 2.0174e-80 2.70062e-80 3.38081e-80 3.98093e-80 4.44731e-80 4.76817e-80 4.97285e-80 5.11222e-80 5.23161e-80 5.35166e-80 5.4669e-80 5.56045e-80 5.62318e-80 5.66414e-80 5.70609e-80 5.77124e-80 5.86778e-80 5.98458e-80 6.09458e-80 6.16243e-80 6.15197e-80 6.0318e-80 5.78027e-80 5.39212e-80 4.88651e-80 4.31233e-80 3.74456e-80 3.26953e-80 2.96264e-80 2.86746e-80 2.98484e-80 3.27571e-80 3.67505e-80 4.1102e-80 4.51689e-80 4.84991e-80 5.08843e-80 5.2364e-80 5.31719e-80 5.36259e-80 5.39955e-80 5.44051e-80 5.48152e-80 5.50786e-80 5.50306e-80 5.45692e-80 5.37026e-80 5.25562e-80 5.1338e-80 5.027e-80 4.95137e-80 4.91235e-80 4.9047e-80 4.91574e-80 4.93026e-80 4.93578e-80 4.9279e-80 4.91358e-80 4.91036e-80 4.9409e-80 5.02485e-80 5.17079e-80 5.37045e-80 5.59718e-80 5.811e-80 5.97042e-80 6.04736e-80 6.03873e-80 5.97032e-80 5.89237e-80 5.86715e-80 5.94964e-80 6.1651e-80 6.49235e-80 6.86286e-80 7.1794e-80 7.34801e-80 7.31058e-80 7.0653e-80 6.6673e-80 6.20898e-80 5.78775e-80 5.47523e-80 5.30191e-80 5.26163e-80 5.32786e-80 5.46704e-80 5.6408e-80 5.80156e-80 5.89277e-80 5.86059e-80 5.6728e-80 5.33348e-80 4.88401e-80 4.38932e-80 3.9158e-80 3.51003e-80 3.18589e-80 2.92383e-80 2.68266e-80 2.41907e-80 2.10696e-80 1.74755e-80 1.3666e-80 1.00132e-80 6.85049e-81 4.36951e-81 2.59791e-81 1.44076e-81 7.46257e-82 3.61599e-82 1.6422e-82 7.00426e-83 2.81154e-83 1.06435e-83 3.80795e-84 1.29017e-84 4.14778e-85 1.26771e-85 3.69019e-86 1.02485e-86 2.72003e-87 6.90982e-88 1.68263e-88 3.93324e-89 8.83758e-90 1.91111e-90 3.98223e-91 8.00477e-92 1.55388e-92 2.91594e-93 5.29479e-94 9.31162e-95 1.58741e-95 2.6254e-96 4.2159e-97 6.57805e-98 9.9799e-99 1.47324e-99 2.1175e-100 2.96511e-101 4.04751e-102 5.38901e-103 7.00229e-104 8.88399e-105 1.10111e-105 1.33386e-106 1.57999e-107 1.83084e-108 2.07626e-109 2.30531e-110 2.50705e-111 2.67143e-112 2.7902e-113 2.8575e-114 2.87019e-115 2.80318e-116 0 