# vtk DataFile Version 3.0
Gray-Scott Simulation Output
ASCII
DATASET STRUCTURED_POINTS
DIMENSIONS 256 256 1
SPACING 1.0 1.0 1.0
ORIGIN 0 0 0
POINT_DATA 65536
SCALARS u double
LOOKUP_TABLE default
0 0 0 0 0 0 0 0 0 0 0 0 0 0 0 0 0 0 0 0 0 0 0 0 0 0 0 0 0 0 0 0 0 0 0 0 0 0 0 0 0 0 0 0 0 0 0 0 0 0 0 0 0 0 0 0 0 0 0 0 0 0 0 0 0 0 0 0 0 0 0 0 0 0 0 0 0 0 0 0 0 0 0 0 0 0 0 0 0 0 0 0 0 0 0 0 0 0 0 0 0 0 0 0 0 0 0 0 0 0 0 0 0 0 0 0 0 0 0 0 0 0 0 0 0 0 0 0 0 0 0 0 0 0 0 0 0 0 0 0 0 0 0 0 0 0 0 0 0 0 0 0 0 0 0 0 0 0 0 0 0 0 0 0 0 0 0 0 0 0 0 0 0 0 0 0 0 0 0 0 0 0 0 0 0 0 0 0 0 0 0 0 0 0 0 0 0 0 0 0 0 0 0 0 0 0 0 0 0 0 0 0 0 0 0 0 0 0 0 0 0 0 0 0 0 0 0 0 0 0 0 0 0 0 0 0 0 0 0 0 0 0 0 0 0 0 0 0 0 0 0 0 0 0 0 0 
0 2.20172e-141 2.46439e-140 2.70877e-139 2.94614e-138 3.17057e-137 3.37583e-136 3.55581e-135 3.70481e-134 3.81782e-133 3.89081e-132 3.92095e-131 3.90679e-130 3.84835e-129 3.74718e-128 3.60625e-127 3.42986e-126 3.22337e-125 2.99296e-124 2.74531e-123 2.48727e-122 2.22554e-121 1.96637e-120 1.71535e-119 1.47718e-118 1.25556e-117 1.05318e-116 8.71679e-116 7.11752e-115 5.73253e-114 4.5534e-113 3.56632e-112 2.75373e-111 2.09585e-110 1.572e-109 1.16176e-108 8.45785e-108 6.06455e-107 4.28193e-106 2.97638e-105 2.03633e-104 1.37095e-103 9.08033e-103 5.91543e-102 3.78937e-101 2.38633e-100 1.47694e-99 8.98146e-99 5.36486e-98 3.14682e-97 1.81199e-96 1.02395e-95 5.6768e-95 3.08662e-94 1.6454e-93 8.59644e-93 4.40011e-92 2.20569e-91 1.08241e-90 5.19798e-90 2.44168e-89 1.12142e-88 5.03361e-88 2.2071e-87 9.44908e-87 3.94789e-86 1.60889e-85 6.39205e-85 2.4744e-84 9.32747e-84 3.42189e-83 1.22098e-82 4.23465e-82 1.4266e-81 4.66517e-81 1.47981e-80 4.5499e-80 1.35496e-79 3.90517e-79 1.08842e-78 2.93118e-78 7.62091e-78 1.91126e-77 4.61959e-77 1.07516e-76 2.40738e-76 5.1813e-76 1.07097e-75 2.12421e-75 4.03973e-75 7.3608e-75 1.2842e-74 2.14411e-74 3.42455e-74 5.2315e-74 7.64455e-74 1.06895e-73 1.43153e-73 1.83844e-73 2.26848e-73 2.69638e-73 3.09761e-73 3.45314e-73 3.75257e-73 3.99472e-73 4.1856e-73 4.33509e-73 4.45361e-73 4.55006e-73 4.63134e-73 4.70273e-73 4.7684e-73 4.83116e-73 4.89147e-73 4.94626e-73 4.98812e-73 5.00569e-73 4.9853e-73 4.91366e-73 4.78117e-73 4.58518e-73 4.33244e-73 4.04001e-73 3.73411e-73 3.44661e-73 3.20981e-73 3.05053e-73 2.98496e-73 3.01577e-73 3.13216e-73 3.31275e-73 3.53047e-73 3.75797e-73 3.97235e-73 4.15813e-73 4.30799e-73 4.42161e-73 4.50309e-73 4.55809e-73 4.59154e-73 4.60645e-73 4.60407e-73 4.58499e-73 4.55049e-73 4.50355e-73 4.449e-73 4.39289e-73 4.3412e-73 4.29849e-73 4.26703e-73 4.24665e-73 4.23546e-73 4.23118e-73 4.23247e-73 4.24005e-73 4.25686e-73 4.28734e-73 4.33589e-73 4.4049e-73 4.49312e-73 4.59499e-73 4.70137e-73 4.80165e-73 4.88683e-73 4.95258e-73 5.00122e-73 5.04169e-73 5.08721e-73 5.15101e-73 5.24129e-73 5.3571e-73 5.48661e-73 5.60887e-73 5.69879e-73 5.73399e-73 5.70128e-73 5.60083e-73 5.44648e-73 5.26228e-73 5.07646e-73 4.9148e-73 4.79527e-73 4.72502e-73 4.69994e-73 4.70618e-73 4.72309e-73 4.72694e-73 4.69515e-73 4.61035e-73 4.46375e-73 4.2567e-73 3.99994e-73 3.71046e-73 3.40685e-73 3.10466e-73 2.81312e-73 2.53432e-73 2.26489e-73 1.99938e-73 1.73387e-73 1.4685e-73 1.20813e-73 9.61034e-74 7.36531e-74 5.42404e-74 3.8313e-74 2.59278e-74 1.68003e-74 1.04209e-74 6.1884e-75 3.51944e-75 1.9178e-75 1.00193e-75 5.02204e-76 2.41693e-76 1.11774e-76 4.97126e-77 2.12821e-77 8.77712e-78 3.49018e-78 1.33926e-78 4.96324e-79 1.77787e-79 6.16044e-80 2.06652e-80 6.71596e-81 2.1161e-81 6.46893e-82 1.91997e-82 5.53618e-83 1.55189e-83 4.23171e-84 1.12315e-84 2.90318e-85 7.31262e-86 1.79584e-86 4.30216e-87 1.00588e-87 2.29648e-88 5.12198e-89 1.11653e-89 2.37984e-90 4.96202e-91 1.01246e-91 2.02248e-92 3.95674e-93 7.58408e-94 1.42474e-94 2.62413e-95 4.74025e-96 8.40084e-97 1.46113e-97 2.49473e-98 4.18015e-99 6.71177e-100 0 
0 2.46264e-140 2.75532e-139 3.02728e-138 3.2912e-137 3.54046e-136 3.76812e-135 3.96739e-134 4.13195e-133 4.25625e-132 4.33587e-131 4.36768e-130 4.35014e-129 4.28335e-128 4.16907e-127 4.01067e-126 3.81297e-125 3.58199e-124 3.32463e-123 3.04833e-122 2.76072e-121 2.46925e-120 2.18085e-119 1.90172e-118 1.63703e-117 1.3909e-116 1.16625e-115 9.64895e-115 7.87565e-114 6.34074e-113 5.03461e-112 3.94173e-111 3.04247e-110 2.31475e-109 1.73554e-108 1.28215e-107 9.33093e-107 6.68815e-106 4.72053e-105 3.28008e-104 2.24331e-103 1.50976e-102 9.99622e-102 6.50983e-101 4.16869e-100 2.62431e-99 1.62368e-98 9.87043e-98 5.89389e-97 3.45598e-96 1.98936e-95 1.12382e-94 6.22844e-94 3.38548e-93 1.80415e-92 9.42287e-92 4.82164e-91 2.41626e-90 1.18539e-89 5.6908e-89 2.67239e-88 1.22703e-87 5.50609e-87 2.4136e-86 1.03303e-85 4.3149e-85 1.75799e-84 6.98261e-84 2.70231e-83 1.01841e-82 3.73523e-82 1.33247e-81 4.62023e-81 1.55614e-80 5.08767e-80 1.61348e-79 4.95985e-79 1.47674e-78 4.25533e-78 1.18579e-77 3.19281e-77 8.29969e-77 2.08114e-76 5.02938e-76 1.17036e-75 2.62016e-75 5.63846e-75 1.16531e-74 2.31106e-74 4.39458e-74 8.00654e-74 1.39673e-73 2.33179e-73 3.72403e-73 5.68864e-73 8.31209e-73 1.16224e-72 1.55641e-72 1.99877e-72 2.46628e-72 2.93148e-72 3.36769e-72 3.75421e-72 4.07976e-72 4.34301e-72 4.55051e-72 4.71298e-72 4.84175e-72 4.94654e-72 5.03483e-72 5.1124e-72 5.18376e-72 5.25197e-72 5.31752e-72 5.37705e-72 5.42253e-72 5.44162e-72 5.41947e-72 5.34166e-72 5.19777e-72 4.98493e-72 4.71047e-72 4.39293e-72 4.06078e-72 3.74864e-72 3.49158e-72 3.31871e-72 3.2476e-72 3.28117e-72 3.40766e-72 3.60388e-72 3.84039e-72 4.0875e-72 4.32036e-72 4.52214e-72 4.68492e-72 4.80831e-72 4.89677e-72 4.95646e-72 4.99271e-72 5.0088e-72 5.00612e-72 4.98532e-72 4.94781e-72 4.89682e-72 4.83762e-72 4.77676e-72 4.72074e-72 4.67448e-72 4.64043e-72 4.61839e-72 4.60632e-72 4.60169e-72 4.6031e-72 4.6113e-72 4.6295e-72 4.66253e-72 4.71515e-72 4.78996e-72 4.88561e-72 4.99607e-72 5.11144e-72 5.2202e-72 5.31261e-72 5.38397e-72 5.43679e-72 5.48076e-72 5.53022e-72 5.5995e-72 5.69749e-72 5.82313e-72 5.9636e-72 6.09619e-72 6.19371e-72 6.23185e-72 6.19635e-72 6.0874e-72 5.92e-72 5.72023e-72 5.51868e-72 5.34332e-72 5.21362e-72 5.13736e-72 5.11006e-72 5.11671e-72 5.13491e-72 5.13894e-72 5.10426e-72 5.01204e-72 4.85275e-72 4.62783e-72 4.34893e-72 4.03447e-72 3.70464e-72 3.3763e-72 3.05946e-72 2.7564e-72 2.46348e-72 2.17477e-72 1.88603e-72 1.59743e-72 1.31424e-72 1.04548e-72 8.0129e-73 5.90126e-73 4.16864e-73 2.82126e-73 1.8282e-73 1.13409e-73 6.73531e-74 3.83081e-74 2.08767e-74 1.09079e-74 5.46801e-75 2.63186e-75 1.21727e-75 5.41465e-76 2.31833e-76 9.56253e-77 3.80304e-77 1.45954e-77 5.40983e-78 1.93816e-78 6.71701e-79 2.25362e-79 7.3254e-80 2.30857e-80 7.05871e-81 2.09545e-81 6.04345e-82 1.69446e-82 4.6215e-83 1.22689e-83 3.17208e-84 7.99188e-85 1.96314e-85 4.70414e-86 1.10016e-86 2.51237e-87 5.605e-88 1.22215e-88 2.60571e-89 5.43451e-90 1.10919e-90 2.21635e-91 4.33732e-92 8.31607e-93 1.56273e-93 2.87917e-94 5.20259e-95 9.22315e-96 1.60466e-96 2.74069e-97 4.59378e-98 7.37822e-99 0 
0 2.70485e-139 3.02505e-138 3.32225e-137 3.61037e-136 3.88218e-135 4.1301e-134 4.3467e-133 4.52512e-132 4.65932e-131 4.74452e-130 4.77737e-129 4.75624e-128 4.6813e-127 4.55455e-126 4.37973e-125 4.16216e-124 3.90845e-123 3.62618e-122 3.32349e-121 3.00872e-120 2.69e-119 2.37488e-118 2.07009e-117 1.78128e-116 1.51286e-115 1.26803e-114 1.04869e-113 8.55632e-113 6.88611e-112 5.46555e-111 4.27751e-110 3.3004e-109 2.51004e-108 1.88127e-107 1.38929e-106 1.01069e-105 7.24169e-105 5.10935e-104 3.54897e-103 2.42634e-102 1.63235e-101 1.08041e-100 7.03347e-100 4.50244e-99 2.83343e-98 1.75246e-97 1.06497e-96 6.35705e-96 3.72632e-95 2.14426e-94 1.21093e-93 6.70904e-93 3.64554e-92 1.94212e-91 1.01403e-90 5.18713e-90 2.59862e-89 1.27447e-88 6.11663e-88 2.87152e-87 1.31808e-86 5.91296e-86 2.59122e-85 1.10875e-84 4.62991e-84 1.88583e-83 7.48844e-83 2.89733e-82 1.09163e-81 4.00282e-81 1.42758e-80 4.94887e-80 1.66646e-79 5.44712e-79 1.72711e-78 5.30803e-78 1.58009e-77 4.55225e-77 1.26829e-76 3.41433e-76 8.87399e-76 2.22478e-75 5.37565e-75 1.25074e-74 2.79972e-74 6.02407e-74 1.24485e-73 2.4685e-73 4.69345e-73 8.55019e-73 1.49143e-72 2.48969e-72 3.97591e-72 6.07301e-72 8.87326e-72 1.24066e-71 1.66137e-71 2.13351e-71 2.6325e-71 3.12903e-71 3.59463e-71 4.00721e-71 4.35469e-71 4.63568e-71 4.85712e-71 5.03047e-71 5.16784e-71 5.2796e-71 5.37377e-71 5.45651e-71 5.53264e-71 5.60541e-71 5.67535e-71 5.73886e-71 5.78737e-71 5.80772e-71 5.7841e-71 5.70113e-71 5.54771e-71 5.32079e-71 5.02819e-71 4.68969e-71 4.33563e-71 4.00292e-71 3.72895e-71 3.54476e-71 3.46908e-71 3.50498e-71 3.63995e-71 3.84924e-71 4.10147e-71 4.365e-71 4.61331e-71 4.82848e-71 5.00205e-71 5.1336e-71 5.2279e-71 5.29148e-71 5.33005e-71 5.34711e-71 5.34415e-71 5.32188e-71 5.28183e-71 5.22746e-71 5.16438e-71 5.09959e-71 5.03998e-71 4.9908e-71 4.95462e-71 4.93123e-71 4.91842e-71 4.91353e-71 4.91504e-71 4.92375e-71 4.9431e-71 4.97822e-71 5.03421e-71 5.11382e-71 5.21562e-71 5.33322e-71 5.45604e-71 5.57185e-71 5.67026e-71 5.74629e-71 5.8026e-71 5.84951e-71 5.90226e-71 5.97611e-71 6.08052e-71 6.21434e-71 6.36392e-71 6.50509e-71 6.60889e-71 6.64948e-71 6.61167e-71 6.49565e-71 6.31741e-71 6.1047e-71 5.8901e-71 5.70335e-71 5.56521e-71 5.48393e-71 5.45476e-71 5.46172e-71 5.48095e-71 5.48505e-71 5.44792e-71 5.34947e-71 5.17955e-71 4.93968e-71 4.64226e-71 4.30691e-71 3.95512e-71 3.60487e-71 3.26683e-71 2.94341e-71 2.63075e-71 2.32253e-71 2.01424e-71 1.70608e-71 1.40368e-71 1.11668e-71 8.55897e-72 6.30376e-72 4.45322e-72 3.01406e-72 1.95328e-72 1.21178e-72 7.19724e-73 4.0939e-73 2.23126e-73 1.16592e-73 5.84527e-74 2.81375e-74 1.30155e-74 5.79024e-75 2.47946e-75 1.02285e-75 4.0685e-76 1.56164e-76 5.7892e-77 2.07441e-77 7.19045e-78 2.41289e-78 7.84454e-79 2.47265e-79 7.5619e-80 2.24528e-80 6.47695e-81 1.8164e-81 4.95519e-82 1.31577e-82 3.4027e-83 8.57499e-84 2.1069e-84 5.04991e-85 1.18133e-85 2.69845e-86 6.02177e-87 1.31339e-87 2.80102e-88 5.84351e-89 1.19302e-89 2.38455e-90 4.66787e-91 8.95254e-92 1.68285e-92 3.10145e-93 5.60601e-94 9.94151e-95 1.7302e-95 2.95608e-96 4.95643e-97 7.9632e-98 0 
0 2.93965e-138 3.2863e-137 3.60765e-136 3.91889e-135 4.21217e-134 4.47929e-133 4.71226e-132 4.90365e-131 5.04701e-130 5.13718e-129 5.17064e-128 5.14567e-127 5.06253e-126 4.92345e-125 4.73256e-124 4.49565e-123 4.21992e-122 3.91359e-121 3.58548e-120 3.24461e-119 2.89975e-118 2.55906e-117 2.22976e-116 1.91791e-115 1.62828e-114 1.36423e-113 1.12782e-112 9.19843e-112 7.40005e-111 5.87124e-110 4.59328e-109 3.54271e-108 2.69331e-107 2.01788e-106 1.48962e-105 1.08329e-104 7.75901e-104 5.47237e-103 3.79975e-102 2.59686e-101 1.74646e-100 1.15552e-99 7.51982e-99 4.81211e-98 3.02727e-97 1.87171e-96 1.13705e-95 6.78505e-95 3.97588e-94 2.28712e-93 1.29118e-92 7.15138e-92 3.88466e-91 2.06886e-90 1.07987e-89 5.52221e-89 2.76565e-88 1.35598e-87 6.50593e-87 3.05339e-86 1.40116e-85 6.2839e-85 2.75302e-84 1.17766e-83 4.91635e-83 2.00198e-82 7.9476e-82 3.07422e-81 1.15799e-80 4.24513e-80 1.51365e-79 5.24603e-79 1.76612e-78 5.77166e-78 1.82962e-77 5.62196e-77 1.67321e-76 4.81962e-76 1.34254e-75 3.61357e-75 9.39024e-75 2.35383e-74 5.68659e-74 1.3229e-73 2.96082e-73 6.36987e-73 1.31615e-72 2.60958e-72 4.96117e-72 9.03703e-72 1.57621e-71 2.63101e-71 4.2013e-71 6.4169e-71 9.37524e-71 1.31079e-70 1.75523e-70 2.254e-70 2.78114e-70 3.30568e-70 3.79757e-70 4.23345e-70 4.60056e-70 4.89739e-70 5.13129e-70 5.31436e-70 5.4594e-70 5.57737e-70 5.67677e-70 5.76412e-70 5.8445e-70 5.92134e-70 5.9952e-70 6.06225e-70 6.11345e-70 6.13493e-70 6.10999e-70 6.02243e-70 5.86053e-70 5.62109e-70 5.31236e-70 4.95521e-70 4.58167e-70 4.23068e-70 3.9417e-70 3.74747e-70 3.66773e-70 3.70574e-70 3.84829e-70 4.06923e-70 4.33547e-70 4.61361e-70 4.87568e-70 5.10277e-70 5.28594e-70 5.42476e-70 5.52424e-70 5.59128e-70 5.63189e-70 5.64978e-70 5.64655e-70 5.62296e-70 5.58064e-70 5.52326e-70 5.45675e-70 5.38848e-70 5.3257e-70 5.27394e-70 5.2359e-70 5.21133e-70 5.19789e-70 5.19277e-70 5.19436e-70 5.20353e-70 5.22388e-70 5.26085e-70 5.3198e-70 5.40365e-70 5.51089e-70 5.63479e-70 5.7642e-70 5.88624e-70 5.98998e-70 6.07015e-70 6.12956e-70 6.17907e-70 6.23476e-70 6.31268e-70 6.42277e-70 6.56385e-70 6.72149e-70 6.87024e-70 6.97961e-70 7.02235e-70 6.98248e-70 6.86022e-70 6.67239e-70 6.44824e-70 6.22208e-70 6.02526e-70 5.87962e-70 5.79389e-70 5.76304e-70 5.77024e-70 5.79035e-70 5.79449e-70 5.75513e-70 5.65112e-70 5.47171e-70 5.21853e-70 4.90463e-70 4.55067e-70 4.17933e-70 3.80955e-70 3.45258e-70 3.11098e-70 2.78066e-70 2.45499e-70 2.1292e-70 1.80351e-70 1.48389e-70 1.18054e-70 9.04887e-71 6.66491e-71 4.70863e-71 3.18713e-71 2.06558e-71 1.28154e-71 7.61219e-72 4.33029e-72 2.3603e-72 1.23347e-72 6.18453e-73 2.97737e-73 1.37739e-73 6.12836e-74 2.62457e-74 1.08286e-74 4.30775e-75 1.65372e-75 6.13145e-76 2.1974e-76 7.618e-77 2.5568e-77 8.31389e-78 2.62108e-78 8.01737e-79 2.38099e-79 6.86986e-80 1.92699e-80 5.25806e-81 1.39651e-81 3.61233e-82 9.10542e-83 2.23778e-83 5.36493e-84 1.25534e-84 2.86827e-85 6.40242e-86 1.39679e-86 2.97971e-87 6.21805e-88 1.26985e-88 2.53885e-89 4.9714e-90 9.53754e-91 1.79336e-91 3.30614e-92 5.97786e-93 1.06043e-93 1.84614e-94 3.15518e-95 5.292e-96 8.50502e-97 0 
0 3.16115e-137 3.53245e-136 3.87625e-135 4.20891e-134 4.52202e-133 4.8068e-132 5.05471e-131 5.25785e-130 5.40934e-129 5.50373e-128 5.53731e-127 5.50833e-126 5.41713e-125 5.26619e-124 5.05997e-123 4.80474e-122 4.50825e-121 4.17932e-120 3.82741e-119 3.46217e-118 3.09297e-117 2.7285e-116 2.37647e-115 2.04331e-114 1.73407e-113 1.45231e-112 1.20017e-111 9.78479e-111 7.86878e-110 6.24077e-109 4.88054e-108 3.76286e-107 2.85962e-106 2.14169e-105 1.58044e-104 1.14891e-103 8.22605e-103 5.79967e-102 4.02557e-101 2.75022e-100 1.84894e-99 1.2229e-98 7.95555e-98 5.08918e-97 3.20048e-96 1.97813e-95 1.2013e-94 7.16606e-94 4.19776e-93 2.41397e-92 1.36235e-91 7.54317e-91 4.0962e-90 2.18084e-89 1.13796e-88 5.81755e-88 2.91269e-87 1.42765e-86 6.8478e-86 3.21292e-85 1.47395e-84 6.60851e-84 2.89444e-83 1.23782e-82 5.16617e-82 2.10316e-81 8.34719e-81 3.22798e-80 1.21562e-79 4.45534e-79 1.58824e-78 5.50331e-78 1.85234e-77 6.05213e-77 1.91814e-76 5.89278e-76 1.75347e-75 5.04989e-75 1.40643e-74 3.7849e-74 9.83386e-74 2.46464e-73 5.95342e-73 1.38477e-72 3.0989e-72 6.6661e-72 1.37719e-71 2.73032e-71 5.19019e-71 9.45331e-71 1.64868e-70 2.75176e-70 4.39384e-70 6.7106e-70 9.80388e-70 1.37067e-69 1.83536e-69 2.35685e-69 2.90801e-69 3.45647e-69 3.97079e-69 4.42656e-69 4.81042e-69 5.12077e-69 5.3653e-69 5.55665e-69 5.7082e-69 5.83145e-69 5.93529e-69 6.02654e-69 6.11054e-69 6.19085e-69 6.26802e-69 6.33809e-69 6.39158e-69 6.41401e-69 6.38796e-69 6.29649e-69 6.12741e-69 5.87735e-69 5.55495e-69 5.18201e-69 4.79198e-69 4.42552e-69 4.12384e-69 3.92113e-69 3.83799e-69 3.87783e-69 4.02682e-69 4.25767e-69 4.53581e-69 4.82635e-69 5.1001e-69 5.33729e-69 5.52861e-69 5.67359e-69 5.77744e-69 5.8474e-69 5.88972e-69 5.9083e-69 5.90481e-69 5.88008e-69 5.83582e-69 5.77589e-69 5.70647e-69 5.63527e-69 5.56985e-69 5.51594e-69 5.47636e-69 5.45081e-69 5.43686e-69 5.43155e-69 5.43321e-69 5.44275e-69 5.46394e-69 5.50245e-69 5.56388e-69 5.65129e-69 5.7631e-69 5.89228e-69 6.02723e-69 6.15452e-69 6.26274e-69 6.3464e-69 6.40843e-69 6.46016e-69 6.51834e-69 6.59969e-69 6.7146e-69 6.86177e-69 7.02621e-69 7.18134e-69 7.29537e-69 7.33993e-69 7.29832e-69 7.1708e-69 6.97491e-69 6.74114e-69 6.50526e-69 6.29995e-69 6.148e-69 6.0585e-69 6.02622e-69 6.03359e-69 6.0544e-69 6.05852e-69 6.01724e-69 5.90847e-69 5.72101e-69 5.45653e-69 5.12863e-69 4.75889e-69 4.37095e-69 3.98457e-69 3.61149e-69 3.2544e-69 2.90902e-69 2.56843e-69 2.22767e-69 1.88699e-69 1.55264e-69 1.23528e-69 9.46888e-70 6.97462e-70 4.92771e-70 3.33561e-70 2.16196e-70 1.34143e-70 7.96852e-71 4.53336e-71 2.4712e-71 1.29154e-71 6.47629e-72 3.11814e-72 1.44267e-72 6.41951e-73 2.74959e-73 1.13458e-73 4.5141e-74 1.73317e-74 6.42698e-75 2.30366e-75 7.98766e-76 2.68132e-76 8.72029e-77 2.74969e-77 8.41235e-78 2.49878e-78 7.21116e-79 2.02315e-79 5.52161e-80 1.46683e-80 3.79509e-81 9.56833e-82 2.3521e-82 5.64041e-83 1.32013e-83 3.01708e-84 6.73635e-85 1.47004e-85 3.13681e-86 6.54771e-87 1.33755e-87 2.67498e-88 5.23948e-89 1.00548e-89 1.89119e-90 3.48757e-91 6.30785e-92 1.11932e-92 1.94928e-93 3.33253e-94 5.59126e-95 8.98876e-96 0 
0 3.36314e-136 3.75662e-135 4.12053e-134 4.47229e-133 4.803e-132 5.10337e-131 5.36437e-130 5.57765e-129 5.73601e-128 5.83372e-127 5.86692e-126 5.83385e-125 5.73494e-124 5.5729e-123 5.35252e-122 5.0805e-121 4.76509e-120 4.41567e-119 4.04226e-118 3.65507e-117 3.26402e-116 2.87827e-115 2.50594e-114 2.1538e-113 1.82713e-112 1.52966e-111 1.26361e-110 1.02981e-109 8.27843e-109 6.5632e-108 5.13077e-107 3.95431e-106 3.004e-105 2.249e-104 1.65902e-103 1.2056e-102 8.62881e-102 6.08146e-101 4.21966e-100 2.8818e-99 1.93672e-98 1.28052e-97 8.32747e-97 5.32529e-96 3.34782e-95 2.06851e-94 1.25576e-93 7.48849e-93 4.3852e-92 2.52095e-91 1.42227e-90 7.87245e-90 4.27368e-89 2.27463e-88 1.18654e-87 6.06407e-87 3.03522e-86 1.48728e-85 7.13174e-85 3.34519e-84 1.5342e-83 6.87678e-83 3.01113e-82 1.28739e-81 5.37164e-81 2.18626e-80 8.67484e-80 3.35388e-79 1.26273e-78 4.62694e-78 1.64904e-77 5.71274e-77 1.92242e-76 6.27982e-76 1.98991e-75 6.11208e-75 1.81839e-74 5.23591e-74 1.45799e-73 3.92301e-73 1.01911e-72 2.55379e-72 6.16786e-72 1.43446e-71 3.20968e-71 6.90357e-71 1.42609e-70 2.82697e-70 5.37339e-70 9.78614e-70 1.70659e-69 2.84822e-69 4.54757e-69 6.94501e-69 1.01459e-68 1.41844e-68 1.89927e-68 2.43888e-68 3.00919e-68 3.57671e-68 4.10892e-68 4.58056e-68 4.97777e-68 5.29891e-68 5.55189e-68 5.74981e-68 5.90653e-68 6.03396e-68 6.14131e-68 6.23566e-68 6.32251e-68 6.40556e-68 6.48537e-68 6.55782e-68 6.61312e-68 6.6363e-68 6.60936e-68 6.51482e-68 6.34006e-68 6.08163e-68 5.74846e-68 5.36308e-68 4.96005e-68 4.58141e-68 4.26975e-68 4.06038e-68 3.97461e-68 4.01592e-68 4.17004e-68 4.40874e-68 4.69629e-68 4.99664e-68 5.27961e-68 5.52479e-68 5.72253e-68 5.87237e-68 5.97968e-68 6.05191e-68 6.09556e-68 6.11464e-68 6.11092e-68 6.08526e-68 6.03946e-68 5.97751e-68 5.90583e-68 5.83234e-68 5.76486e-68 5.70931e-68 5.66854e-68 5.64225e-68 5.62792e-68 5.62247e-68 5.62419e-68 5.63402e-68 5.65585e-68 5.69555e-68 5.7589e-68 5.84906e-68 5.96442e-68 6.09772e-68 6.23699e-68 6.36836e-68 6.48008e-68 6.56647e-68 6.63057e-68 6.68405e-68 6.74419e-68 6.82825e-68 6.94692e-68 7.09887e-68 7.2686e-68 7.42871e-68 7.54638e-68 7.59233e-68 7.54938e-68 7.41775e-68 7.21558e-68 6.9743e-68 6.73084e-68 6.51891e-68 6.36202e-68 6.26956e-68 6.23612e-68 6.24359e-68 6.2649e-68 6.26896e-68 6.2261e-68 6.11355e-68 5.9197e-68 5.64629e-68 5.30735e-68 4.92513e-68 4.52405e-68 4.12452e-68 3.73866e-68 3.36925e-68 3.01186e-68 2.65936e-68 2.30663e-68 1.95395e-68 1.60779e-68 1.27922e-68 9.80608e-69 7.22335e-69 5.10371e-69 3.45495e-69 2.23945e-69 1.3896e-69 8.25527e-70 4.69685e-70 2.56052e-70 1.33834e-70 6.71156e-71 3.23173e-71 1.49537e-71 6.65473e-72 2.85066e-72 1.17642e-72 4.68118e-73 1.79756e-73 6.66667e-74 2.38992e-74 8.28804e-75 2.7826e-75 9.05118e-76 2.85453e-76 8.73468e-77 2.59501e-77 7.49033e-78 2.1019e-78 5.73773e-79 1.52457e-79 3.94536e-80 9.94947e-81 2.44637e-81 5.86787e-82 1.3737e-82 3.14031e-83 7.01331e-84 1.53088e-84 3.26752e-85 6.82241e-86 1.39405e-86 2.78876e-87 5.46393e-88 1.04886e-88 1.97337e-89 3.64022e-90 6.58595e-91 1.16903e-91 2.03649e-92 3.48273e-93 5.84514e-94 9.39981e-95 0 
0 3.53958e-135 3.95208e-134 4.33312e-133 4.70108e-132 5.04663e-131 5.36002e-130 5.63183e-129 5.85335e-128 6.01708e-127 6.11708e-126 6.14941e-125 6.11227e-124 6.00622e-123 5.83416e-122 5.60121e-121 5.31443e-120 4.98252e-119 4.61533e-118 4.22337e-117 3.81734e-116 3.40759e-115 3.0037e-114 2.61413e-113 2.24592e-112 1.90455e-111 1.59387e-110 1.31615e-109 1.07222e-108 8.61612e-108 6.82837e-107 5.33608e-106 4.11102e-105 3.1219e-104 2.33641e-103 1.72288e-102 1.25155e-101 8.9545e-101 6.30875e-100 4.37582e-99 2.9874e-98 2.00699e-97 1.32652e-96 8.62369e-96 5.51284e-95 3.46457e-94 2.13993e-93 1.29869e-92 7.74196e-92 4.53216e-91 2.6046e-90 1.469e-89 8.12857e-89 4.41135e-88 2.34719e-87 1.22403e-86 6.25377e-86 3.12925e-85 1.53291e-84 7.34849e-84 3.4459e-83 1.57996e-82 7.07996e-82 3.09928e-81 1.32473e-80 5.52605e-80 2.24855e-79 8.91982e-79 3.44778e-78 1.29778e-77 4.75431e-77 1.69406e-76 5.86746e-76 1.97408e-75 6.44727e-75 2.04257e-74 6.27267e-74 1.86583e-73 5.37158e-73 1.49552e-72 4.02335e-72 1.04501e-71 2.61833e-71 6.32288e-71 1.47032e-70 3.28952e-70 7.07448e-70 1.46124e-69 2.89636e-69 5.50478e-69 1.00246e-68 1.74804e-68 2.9172e-68 4.65744e-68 7.11244e-68 1.03901e-67 1.45252e-67 1.94486e-67 2.49739e-67 3.08135e-67 3.66248e-67 4.20745e-67 4.6904e-67 5.09715e-67 5.42596e-67 5.68496e-67 5.88753e-67 6.0479e-67 6.17826e-67 6.28807e-67 6.38459e-67 6.47346e-67 6.55845e-67 6.64011e-67 6.71423e-67 6.7708e-67 6.79451e-67 6.76694e-67 6.67024e-67 6.49152e-67 6.22723e-67 5.88654e-67 5.49247e-67 5.08038e-67 4.69327e-67 4.37467e-67 4.16069e-67 4.07313e-67 4.11553e-67 4.27327e-67 4.5175e-67 4.81167e-67 5.1189e-67 5.40835e-67 5.65912e-67 5.86137e-67 6.0146e-67 6.12431e-67 6.19812e-67 6.24266e-67 6.26206e-67 6.25813e-67 6.23179e-67 6.1849e-67 6.12153e-67 6.04827e-67 5.97323e-67 5.90436e-67 5.8477e-67 5.80616e-67 5.7794e-67 5.76483e-67 5.7593e-67 5.76106e-67 5.77108e-67 5.79333e-67 5.83383e-67 5.89847e-67 5.9905e-67 6.10827e-67 6.24437e-67 6.38658e-67 6.52075e-67 6.63487e-67 6.72314e-67 6.78868e-67 6.84339e-67 6.90491e-67 6.99085e-67 7.11212e-67 7.26736e-67 7.44072e-67 7.60422e-67 7.72437e-67 7.77128e-67 7.72739e-67 7.59296e-67 7.38648e-67 7.14008e-67 6.89142e-67 6.67495e-67 6.51467e-67 6.42015e-67 6.38588e-67 6.39336e-67 6.41495e-67 6.41889e-67 6.37488e-67 6.25963e-67 6.06129e-67 5.78161e-67 5.43492e-67 5.04394e-67 4.63363e-67 4.22483e-67 3.82994e-67 3.45177e-67 3.08584e-67 2.72482e-67 2.36351e-67 2.00221e-67 1.64757e-67 1.31091e-67 1.00495e-67 7.40301e-68 5.23092e-68 3.54127e-68 2.29553e-68 1.42449e-68 8.46311e-69 4.81544e-69 2.62537e-69 1.37234e-69 6.88268e-70 3.31442e-70 1.53378e-70 6.82635e-71 2.92449e-71 1.20703e-71 4.80354e-72 1.84478e-72 6.8427e-73 2.45337e-73 8.50933e-74 2.85733e-74 9.29579e-75 2.93217e-75 8.97382e-76 2.66655e-76 7.69828e-77 2.16068e-77 5.89939e-78 1.56786e-78 4.05825e-79 1.02364e-79 2.51751e-80 6.03992e-81 1.41433e-81 3.23397e-82 7.22431e-83 1.57735e-83 3.36758e-84 7.03323e-85 1.43752e-85 2.87654e-86 5.6375e-87 1.08249e-87 2.03725e-88 3.75916e-89 6.80321e-90 1.20796e-90 2.10497e-91 3.60097e-92 6.0455e-93 9.725e-94 0 
0 3.68484e-134 4.11259e-133 4.50724e-132 4.88796e-131 5.24508e-130 5.56851e-129 5.8485e-128 6.07606e-127 6.24347e-126 6.34467e-125 6.37561e-124 6.33455e-123 6.22215e-122 6.04149e-121 5.79794e-120 5.49891e-119 5.15343e-118 4.77176e-117 4.36481e-116 3.94363e-115 3.51896e-114 3.10067e-113 2.69748e-112 2.31664e-111 1.96376e-110 1.6428e-109 1.35604e-108 1.1043e-107 8.87062e-107 7.02744e-106 5.48961e-105 4.22775e-104 3.20937e-103 2.401e-102 1.76986e-101 1.28522e-100 9.19213e-100 6.47388e-99 4.48878e-98 3.06345e-97 2.05737e-96 1.35935e-95 8.83415e-95 5.64547e-94 3.54674e-93 2.18996e-92 1.32862e-91 7.91781e-91 4.63362e-90 2.66206e-89 1.50094e-88 8.30274e-88 4.5045e-87 2.39603e-86 1.24912e-85 6.38013e-85 3.19156e-84 1.56299e-83 7.49058e-83 3.51157e-82 1.60963e-81 7.21102e-81 3.15583e-80 1.34856e-79 5.62405e-79 2.28786e-78 9.07363e-78 3.50641e-77 1.31956e-76 4.83301e-76 1.72173e-75 5.96207e-75 2.00551e-74 6.54864e-74 2.0743e-73 6.36894e-73 1.89414e-72 5.45216e-72 1.51771e-71 4.08242e-71 1.0602e-70 2.65602e-70 6.41305e-70 1.49111e-69 3.33563e-69 7.17286e-69 1.48141e-68 2.93606e-68 5.57976e-68 1.01603e-67 1.77159e-67 2.95631e-67 4.71961e-67 7.20706e-67 1.05279e-66 1.47175e-66 1.97056e-66 2.53034e-66 3.12199e-66 3.71077e-66 4.26294e-66 4.75226e-66 5.16437e-66 5.49749e-66 5.75985e-66 5.965e-66 6.12736e-66 6.25931e-66 6.37046e-66 6.46815e-66 6.55812e-66 6.64416e-66 6.72684e-66 6.80187e-66 6.85911e-66 6.8831e-66 6.85519e-66 6.75733e-66 6.57648e-66 6.30907e-66 5.96436e-66 5.56568e-66 5.14878e-66 4.75718e-66 4.43493e-66 4.21857e-66 4.13012e-66 4.17318e-66 4.33294e-66 4.58019e-66 4.87795e-66 5.1889e-66 5.48183e-66 5.73562e-66 5.94029e-66 6.09533e-66 6.20631e-66 6.28092e-66 6.3259e-66 6.34541e-66 6.34132e-66 6.31456e-66 6.26705e-66 6.20293e-66 6.12885e-66 6.05302e-66 5.98349e-66 5.92631e-66 5.88443e-66 5.85748e-66 5.84282e-66 5.83727e-66 5.83905e-66 5.84915e-66 5.8716e-66 5.91246e-66 5.97773e-66 6.07067e-66 6.18963e-66 6.32712e-66 6.4708e-66 6.60637e-66 6.7217e-66 6.81094e-66 6.87723e-66 6.9326e-66 6.99486e-66 7.0818e-66 7.20442e-66 7.36133e-66 7.53653e-66 7.70173e-66 7.82312e-66 7.87049e-66 7.82613e-66 7.69028e-66 7.48165e-66 7.23266e-66 6.9814e-66 6.76263e-66 6.60061e-66 6.50501e-66 6.47026e-66 6.47768e-66 6.49932e-66 6.50309e-66 6.45837e-66 6.34161e-66 6.14082e-66 5.85775e-66 5.50689e-66 5.11119e-66 4.69588e-66 4.28202e-66 3.88215e-66 3.49912e-66 3.12838e-66 2.76254e-66 2.39634e-66 2.0301e-66 1.67058e-66 1.32928e-66 1.01907e-66 7.50739e-67 5.30494e-67 3.59156e-67 2.32826e-67 1.44489e-67 8.58485e-68 4.88504e-68 2.66351e-68 1.39238e-68 6.98372e-69 3.36336e-69 1.55657e-69 6.92843e-70 2.96852e-70 1.22533e-70 4.87693e-71 1.87319e-71 6.94898e-72 2.49181e-72 8.64387e-73 2.90294e-73 9.44564e-74 2.97992e-74 9.12152e-75 2.71092e-75 7.82781e-76 2.19745e-76 6.00098e-77 1.59518e-77 4.12986e-78 1.04193e-78 2.56306e-79 6.15063e-80 1.44059e-80 3.29483e-81 7.36209e-82 1.60784e-82 3.43357e-83 7.17295e-84 1.46648e-84 2.93528e-85 5.75424e-86 1.10523e-86 2.08063e-87 3.84034e-88 6.9522e-89 1.23479e-89 2.15239e-90 3.68322e-91 6.18554e-92 9.95328e-93 0 
0 3.79401e-133 4.23272e-132 4.63697e-131 5.02659e-130 5.39162e-129 5.72174e-128 6.00698e-127 6.23816e-126 6.40744e-125 6.50866e-124 6.53777e-123 6.49305e-122 6.37528e-121 6.18771e-120 5.93591e-119 5.62753e-118 5.2719e-117 4.87953e-116 4.46164e-115 4.02955e-114 3.59423e-113 3.16577e-112 2.75306e-111 2.36347e-110 2.0027e-109 1.67473e-108 1.38189e-107 1.12492e-106 9.0329e-106 7.15335e-105 5.58591e-104 4.30034e-103 3.26329e-102 2.44045e-101 1.7983e-100 1.30541e-99 9.3332e-99 6.57092e-98 4.55448e-97 3.10721e-96 2.08605e-95 1.37783e-94 8.9512e-94 5.71837e-93 3.59134e-92 2.21677e-91 1.34446e-90 8.0096e-90 4.68585e-89 2.69123e-88 1.51692e-87 8.38854e-87 4.54967e-86 2.41933e-85 1.2609e-84 6.43845e-84 3.21981e-83 1.57639e-82 7.5527e-82 3.53973e-81 1.62211e-80 7.26503e-80 3.17866e-79 1.35797e-78 5.66193e-78 2.30272e-77 9.13044e-77 3.52756e-76 1.32722e-75 4.86004e-75 1.73101e-74 5.99296e-74 2.0155e-73 6.58004e-73 2.08386e-72 6.39719e-72 1.90222e-71 5.47454e-71 1.52371e-70 4.09795e-70 1.06409e-69 2.66539e-69 6.43489e-69 1.49601e-68 3.34622e-68 7.1949e-68 1.48582e-67 2.94454e-67 5.59542e-67 1.01881e-66 1.77631e-66 2.96402e-66 4.73168e-66 7.22517e-66 1.0554e-65 1.47535e-65 1.97535e-65 2.53646e-65 3.12952e-65 3.71971e-65 4.27322e-65 4.76373e-65 5.17683e-65 5.51073e-65 5.77365e-65 5.9792e-65 6.14182e-65 6.27396e-65 6.38525e-65 6.48308e-65 6.57318e-65 6.65935e-65 6.74216e-65 6.81729e-65 6.87461e-65 6.89862e-65 6.87067e-65 6.77269e-65 6.59163e-65 6.32395e-65 5.97891e-65 5.57986e-65 5.1626e-65 4.77069e-65 4.44823e-65 4.23178e-65 4.1434e-65 4.18667e-65 4.34674e-65 4.59438e-65 4.89256e-65 5.20392e-65 5.49722e-65 5.75132e-65 5.95621e-65 6.11142e-65 6.22248e-65 6.29711e-65 6.34203e-65 6.36145e-65 6.35723e-65 6.33034e-65 6.28272e-65 6.21852e-65 6.14443e-65 6.06863e-65 5.99916e-65 5.94209e-65 5.90031e-65 5.87346e-65 5.85886e-65 5.85336e-65 5.85514e-65 5.86521e-65 5.88761e-65 5.92841e-65 5.9936e-65 6.08646e-65 6.20533e-65 6.34274e-65 6.48635e-65 6.62187e-65 6.73718e-65 6.82644e-65 6.89278e-65 6.94821e-65 7.01055e-65 7.09755e-65 7.22021e-65 7.37711e-65 7.55227e-65 7.71742e-65 7.83875e-65 7.88608e-65 7.84171e-65 7.70591e-65 7.49734e-65 7.24844e-65 6.99725e-65 6.77852e-65 6.61649e-65 6.52083e-65 6.48598e-65 6.49325e-65 6.51471e-65 6.51827e-65 6.47332e-65 6.35629e-65 6.15519e-65 5.87176e-65 5.52046e-65 5.12427e-65 4.70838e-65 4.29387e-65 3.89329e-65 3.50947e-65 3.13785e-65 2.77107e-65 2.40385e-65 2.03655e-65 1.67596e-65 1.33361e-65 1.02244e-65 7.53249e-66 5.32293e-66 3.60392e-66 2.3364e-66 1.45002e-66 8.61584e-67 4.90298e-67 2.67346e-67 1.39768e-67 7.01084e-68 3.37668e-68 1.56287e-68 6.95707e-69 2.98107e-69 1.23064e-69 4.89858e-70 1.88172e-70 6.98145e-71 2.50377e-71 8.68655e-72 2.91769e-72 9.49504e-73 2.99598e-73 9.17216e-74 2.72643e-74 7.87402e-75 2.21083e-75 6.03868e-76 1.60552e-76 4.15749e-77 1.04913e-77 2.58132e-78 6.19585e-79 1.45152e-79 3.32061e-80 7.4215e-81 1.62122e-81 3.46303e-82 7.23638e-83 1.47984e-83 2.96283e-84 5.80984e-85 1.11622e-85 2.10193e-86 3.88078e-87 7.02748e-88 1.24853e-88 2.177e-89 3.7265e-90 6.26016e-91 1.00764e-91 0 