# vtk DataFile Version 3.0
Gray-Scott Simulation Output
ASCII
DATASET STRUCTURED_POINTS
DIMENSIONS 256 256 1
SPACING 1.0 1.0 1.0
ORIGIN 0 0 0
POINT_DATA 65536
SCALARS u double
LOOKUP_TABLE default
0 0 0 0 0 0 0 0 0 0 0 0 0 0 0 0 0 0 0 0 0 0 0 0 0 0 0 0 0 0 0 0 0 0 0 0 0 0 0 0 0 0 0 0 0 0 0 0 0 0 0 0 0 0 0 0 0 0 0 0 0 0 0 0 0 0 0 0 0 0 0 0 0 0 0 0 0 0 0 0 0 0 0 0 0 0 0 0 0 0 0 0 0 0 0 0 0 0 0 0 0 0 0 0 0 0 0 0 0 0 0 0 0 0 0 0 0 0 0 0 0 0 0 0 0 0 0 0 0 0 0 0 0 0 0 0 0 0 0 0 0 0 0 0 0 0 0 0 0 0 0 0 0 0 0 0 0 0 0 0 0 0 0 0 0 0 0 0 0 0 0 0 0 0 0 0 0 0 0 0 0 0 0 0 0 0 0 0 0 0 0 0 0 0 0 0 0 0 0 0 0 0 0 0 0 0 0 0 0 0 0 0 0 0 0 0 0 0 0 0 0 0 0 0 0 0 0 0 0 0 0 0 0 0 0 0 0 0 0 0 0 0 0 0 0 0 0 0 0 0 0 0 0 0 0 0 
0 5.51838e-226 2.11124e-224 7.97749e-223 2.97877e-221 1.09902e-219 4.00618e-218 1.44265e-216 5.13157e-215 1.80281e-213 6.25477e-212 2.14281e-210 7.24791e-209 2.42018e-207 7.9769e-206 2.59487e-204 8.3298e-203 2.63836e-201 8.24431e-200 2.54117e-198 7.72517e-197 2.31588e-195 6.84525e-194 1.99462e-192 5.72878e-191 1.62152e-189 4.52236e-188 1.24257e-186 3.36284e-185 8.96285e-184 2.35211e-182 6.07657e-181 1.54512e-179 3.86613e-178 9.51732e-177 2.30452e-175 5.48753e-174 1.28471e-172 2.95638e-171 6.68557e-170 1.48535e-168 3.24127e-167 6.94521e-166 1.46088e-164 3.01564e-163 6.1073e-162 1.21308e-160 2.36246e-159 4.50946e-158 8.43379e-157 1.54491e-155 2.77081e-154 4.86366e-153 8.35214e-152 1.40259e-150 2.30234e-149 3.6925e-148 5.78328e-147 8.84134e-146 1.31864e-144 1.91761e-143 2.71755e-142 3.75075e-141 5.03859e-140 6.58363e-139 8.36156e-138 1.03147e-136 1.23493e-135 1.4338e-134 1.61296e-133 1.75651e-132 1.84991e-131 1.88226e-130 1.84825e-129 1.7494e-128 1.59412e-127 1.39662e-126 1.17474e-125 9.47191e-125 7.30884e-124 5.3876e-123 3.78647e-122 2.53192e-121 1.60711e-120 9.65896e-120 5.48171e-119 2.92883e-118 1.46834e-117 6.88226e-117 3.0037e-116 1.21527e-115 4.53582e-115 1.55334e-114 4.85255e-114 1.37418e-113 3.50474e-113 7.99864e-113 1.62412e-112 2.92179e-112 4.65053e-112 6.56509e-112 8.27369e-112 9.40063e-112 9.758e-112 9.43644e-112 8.74807e-112 8.04248e-112 7.54366e-112 7.3279e-112 7.38984e-112 7.70213e-112 8.2418e-112 8.97718e-112 9.79422e-112 1.04433e-111 1.06762e-111 1.04754e-111 1.00654e-111 9.69036e-112 9.4448e-112 9.31221e-112 9.28841e-112 9.40244e-112 9.66249e-112 1.00427e-111 1.05041e-111 1.09819e-111 1.13395e-111 1.14072e-111 1.11111e-111 1.05191e-111 9.77561e-112 9.05821e-112 8.56768e-112 8.49774e-112 8.96013e-112 9.88098e-112 1.09492e-111 1.16967e-111 1.17387e-111 1.10387e-111 9.93419e-112 8.87728e-112 8.16298e-112 7.86361e-112 7.91899e-112 8.24101e-112 8.76707e-112 9.43792e-112 1.01139e-111 1.05369e-111 1.04769e-111 9.96282e-112 9.27337e-112 8.66253e-112 8.18746e-112 7.8238e-112 7.62489e-112 7.69278e-112 8.08376e-112 8.80918e-112 9.82436e-112 1.09073e-111 1.1635e-111 1.16102e-111 1.07593e-111 9.43291e-112 8.18962e-112 7.42086e-112 7.16876e-112 7.27165e-112 7.58244e-112 8.00445e-112 8.44101e-112 8.83824e-112 9.2614e-112 9.84576e-112 1.06489e-111 1.1552e-111 1.22911e-111 1.26089e-111 1.24149e-111 1.1823e-111 1.10631e-111 1.03724e-111 9.90953e-112 9.69027e-112 9.57751e-112 9.35799e-112 8.90391e-112 8.30697e-112 7.84844e-112 7.79196e-112 8.1829e-112 8.80522e-112 9.28746e-112 9.29498e-112 8.70994e-112 7.64766e-112 6.31361e-112 4.87771e-112 3.47181e-112 2.23418e-112 1.28249e-112 6.53099e-113 2.95286e-113 1.19071e-113 4.30903e-114 1.40897e-114 4.1905e-115 1.14076e-115 2.85884e-116 6.63009e-117 1.42966e-117 2.87857e-118 5.43274e-119 9.64413e-120 1.61537e-120 2.56026e-121 3.84969e-122 5.50461e-123 7.50115e-124 9.76107e-125 1.21516e-125 1.44968e-126 1.65996e-127 1.82703e-128 1.93554e-129 1.97616e-130 1.94678e-131 1.85256e-132 1.70465e-133 1.51822e-134 1.31e-135 1.09603e-136 8.89901e-138 7.0173e-139 5.37806e-140 4.00879e-141 2.90817e-142 2.05456e-143 1.4144e-144 9.49355e-146 6.21621e-147 3.97273e-148 2.47934e-149 1.51173e-150 9.00953e-152 5.25061e-153 2.99351e-154 1.67028e-155 9.12446e-157 4.88195e-158 2.55919e-159 1.31162e-160 0 
0 2.11103e-224 8.0633e-223 3.0418e-221 1.13395e-219 4.17692e-218 1.52011e-216 5.46512e-215 1.94082e-213 6.80745e-212 2.35801e-210 8.06524e-209 2.72364e-207 9.08003e-206 2.98798e-204 9.70431e-203 3.11022e-201 9.83557e-200 3.06852e-198 9.44319e-197 2.8662e-195 8.5788e-194 2.53172e-192 7.36551e-191 2.11213e-189 5.96897e-188 1.66212e-186 4.55972e-185 1.2321e-183 3.27877e-182 8.59108e-181 2.21602e-179 5.62606e-178 1.40556e-176 3.45475e-175 8.35246e-174 1.98584e-172 4.64201e-171 1.06659e-169 2.4083e-168 5.34243e-167 1.16404e-165 2.49044e-164 5.23056e-163 1.07809e-161 2.18007e-160 4.32373e-159 8.40774e-158 1.60247e-156 2.99253e-155 5.47358e-154 9.80228e-153 1.71806e-151 2.94598e-150 4.93991e-149 8.09689e-148 1.29667e-146 2.0279e-145 3.09566e-144 4.61027e-143 6.69468e-142 9.47362e-141 1.30565e-139 1.75142e-138 2.28518e-137 2.89813e-136 3.56998e-135 4.26806e-134 4.94832e-133 5.55874e-132 6.04492e-131 6.3574e-130 6.4595e-129 6.33393e-128 5.98682e-127 5.44788e-126 4.76636e-125 4.00362e-124 3.22372e-123 2.48416e-122 1.82869e-121 1.28351e-120 8.57114e-120 5.43328e-119 3.26124e-118 1.84845e-117 9.86359e-117 4.93883e-116 2.31203e-115 1.00785e-114 4.07289e-114 1.51842e-113 5.19431e-113 1.62098e-112 4.58593e-112 1.16857e-111 2.66483e-111 5.40729e-111 9.72252e-111 1.54691e-110 2.18324e-110 2.75115e-110 3.12585e-110 3.24491e-110 3.13832e-110 2.90965e-110 2.67502e-110 2.50899e-110 2.43709e-110 2.45765e-110 2.56158e-110 2.74118e-110 2.98576e-110 3.25729e-110 3.47291e-110 3.55044e-110 3.48403e-110 3.34804e-110 3.22351e-110 3.14185e-110 3.09773e-110 3.08979e-110 3.12766e-110 3.21407e-110 3.34048e-110 3.49389e-110 3.65263e-110 3.77131e-110 3.79366e-110 3.6952e-110 3.49843e-110 3.25133e-110 3.01293e-110 2.84998e-110 2.8268e-110 2.98043e-110 3.28624e-110 3.64087e-110 3.88889e-110 3.90265e-110 3.67017e-110 3.30332e-110 2.95213e-110 2.71461e-110 2.61493e-110 2.63325e-110 2.74034e-110 2.91537e-110 3.13848e-110 3.36313e-110 3.50363e-110 3.48378e-110 3.31321e-110 3.08424e-110 2.88112e-110 2.72303e-110 2.60212e-110 2.53612e-110 2.55887e-110 2.68906e-110 2.93043e-110 3.26789e-110 3.62755e-110 3.86902e-110 3.8605e-110 3.57772e-110 3.13702e-110 2.7237e-110 2.46778e-110 2.3835e-110 2.41743e-110 2.52074e-110 2.66116e-110 2.80651e-110 2.93887e-110 3.07986e-110 3.27433e-110 3.54136e-110 3.8415e-110 4.08709e-110 4.19273e-110 4.12842e-110 3.93192e-110 3.67953e-110 3.4501e-110 3.29621e-110 3.22313e-110 3.18534e-110 3.11212e-110 2.96115e-110 2.76289e-110 2.61063e-110 2.59182e-110 2.72155e-110 2.92812e-110 3.08817e-110 3.09057e-110 2.89615e-110 2.5431e-110 2.09962e-110 1.62224e-110 1.15485e-110 7.43408e-111 4.26952e-111 2.17566e-111 9.8447e-112 3.9734e-112 1.43936e-112 4.71144e-113 1.40283e-113 3.82331e-114 9.593e-115 2.22749e-115 4.80919e-116 9.69544e-117 1.83218e-117 3.2567e-118 5.46209e-119 8.66856e-120 1.30518e-120 1.86876e-121 2.55003e-122 3.32282e-123 4.14227e-124 4.94853e-125 5.67418e-126 6.25394e-127 6.63465e-128 6.78338e-129 6.69195e-130 6.37705e-131 5.87624e-132 5.24103e-133 4.52868e-134 3.7944e-135 3.08522e-136 2.43635e-137 1.86992e-138 1.39585e-139 1.01408e-140 7.17472e-142 4.94643e-143 3.32494e-144 2.1803e-145 1.39546e-146 8.72176e-148 5.32578e-149 3.17873e-150 1.85526e-151 1.05931e-152 5.91941e-154 3.23849e-155 1.73532e-156 9.11042e-158 4.67622e-159 0 
0 7.97588e-223 3.04149e-221 1.1455e-219 4.26334e-218 1.56786e-216 5.69664e-215 2.04475e-213 7.24976e-212 2.53875e-210 8.77972e-209 2.99815e-207 1.01085e-205 3.36457e-204 1.10541e-202 3.58441e-201 1.14697e-199 3.62134e-198 1.128e-196 3.46584e-195 1.05029e-193 3.13865e-192 9.24797e-191 2.68628e-189 7.69107e-188 2.17012e-186 6.03347e-185 1.65258e-183 4.45857e-182 1.18463e-180 3.09917e-179 7.98176e-178 2.02328e-176 5.04696e-175 1.23859e-173 2.9899e-172 7.09774e-171 1.65659e-169 3.80052e-168 8.56829e-167 1.89784e-165 4.12883e-164 8.8202e-163 1.84966e-161 3.80667e-160 7.68608e-159 1.52208e-157 2.95534e-156 5.62427e-155 1.04874e-153 1.91537e-152 3.425e-151 5.99414e-150 1.0263e-148 1.71839e-147 2.81243e-146 4.49732e-145 7.02318e-144 1.07055e-142 1.592e-141 2.30842e-140 3.2619e-139 4.48902e-138 6.01295e-137 7.83417e-136 9.92126e-135 1.22037e-133 1.45693e-132 1.68674e-131 1.89213e-130 2.05471e-129 2.15789e-128 2.18947e-127 2.14391e-126 2.02361e-125 1.83889e-124 1.60664e-123 1.34768e-122 1.08368e-121 8.3394e-121 6.13073e-120 4.29725e-119 2.86585e-118 1.81429e-117 1.08758e-116 6.15644e-116 3.28099e-115 1.64078e-114 7.67161e-114 3.34015e-113 1.34823e-112 5.02064e-112 1.71562e-111 5.34837e-111 1.51164e-110 3.84847e-110 8.76922e-110 1.7782e-109 3.19557e-109 5.08242e-109 7.17142e-109 9.03589e-109 1.02665e-108 1.06582e-108 1.03093e-108 9.55899e-109 8.78833e-109 8.24246e-109 8.0058e-109 8.07321e-109 8.41486e-109 9.0052e-109 9.80863e-109 1.06999e-108 1.14075e-108 1.16624e-108 1.14455e-108 1.1e-108 1.05916e-108 1.03233e-108 1.01783e-108 1.01522e-108 1.02764e-108 1.056e-108 1.09751e-108 1.14788e-108 1.19998e-108 1.23888e-108 1.24618e-108 1.21384e-108 1.14923e-108 1.06812e-108 9.8987e-109 9.364e-109 9.2881e-109 9.79226e-109 1.07954e-108 1.19582e-108 1.2771e-108 1.28156e-108 1.20529e-108 1.08494e-108 9.69685e-109 8.91677e-109 8.58895e-109 8.64876e-109 9.00058e-109 9.57578e-109 1.03086e-108 1.1046e-108 1.1507e-108 1.14422e-108 1.08832e-108 1.01321e-108 9.46496e-109 8.94535e-109 8.54826e-109 8.33194e-109 8.4072e-109 8.83543e-109 9.62865e-109 1.07367e-108 1.19165e-108 1.27079e-108 1.26791e-108 1.17508e-108 1.03045e-108 8.94731e-109 8.10579e-109 7.8275e-109 7.93802e-109 8.27719e-109 8.73872e-109 9.21673e-109 9.65237e-109 1.01164e-108 1.07556e-108 1.16326e-108 1.26178e-108 1.34238e-108 1.37707e-108 1.35601e-108 1.29158e-108 1.20879e-108 1.1335e-108 1.08297e-108 1.05891e-108 1.0464e-108 1.02228e-108 9.72704e-109 9.07666e-109 8.57722e-109 8.51535e-109 8.9406e-109 9.61782e-109 1.01425e-108 1.01501e-108 9.51192e-109 8.35293e-109 6.89675e-109 5.3291e-109 3.79436e-109 2.4433e-109 1.40392e-109 7.15884e-110 3.24191e-110 1.30965e-110 4.74892e-111 1.55612e-111 4.63851e-112 1.26566e-112 3.17945e-113 7.3917e-114 1.59787e-114 3.22544e-115 6.10307e-116 1.08623e-116 1.82421e-117 2.89893e-118 4.3706e-119 6.26629e-120 8.56228e-121 1.11723e-121 1.39466e-122 1.66842e-123 1.91572e-124 2.1144e-125 2.24624e-126 2.29982e-127 2.27201e-128 2.16816e-129 2.00071e-130 1.78698e-131 1.5463e-132 1.29744e-133 1.05646e-134 8.35467e-136 6.42153e-137 4.80045e-138 3.49259e-139 2.47463e-140 1.70856e-141 1.15015e-142 7.5531e-144 4.84133e-145 3.03033e-146 1.85315e-147 1.1077e-148 6.47467e-150 3.70236e-151 2.07196e-152 1.13526e-153 6.09227e-155 3.20324e-156 1.64663e-157 0 
0 2.97786e-221 1.13371e-219 4.26289e-218 1.58399e-216 5.81572e-215 2.10966e-213 7.56015e-212 2.67616e-210 9.3564e-209 3.2305e-207 1.1014e-205 3.70752e-204 1.23205e-202 4.04139e-201 1.30837e-199 4.17998e-198 1.31765e-196 4.0978e-195 1.25708e-193 3.80345e-192 1.13482e-190 3.33846e-189 9.68207e-188 2.76773e-186 7.79722e-185 2.16444e-183 5.91921e-182 1.59448e-180 4.22992e-179 1.1049e-177 2.8412e-176 7.191e-175 1.79099e-173 4.38857e-172 1.05776e-170 2.50716e-169 5.8427e-168 1.33837e-166 3.01278e-165 6.66305e-164 1.44737e-162 3.08727e-161 6.46446e-160 1.3284e-158 2.67815e-157 5.29563e-156 1.02668e-154 1.95094e-153 3.63243e-152 6.62423e-151 1.18277e-149 2.06691e-148 3.53369e-147 5.90793e-146 9.65507e-145 1.54166e-143 2.40399e-142 3.65907e-141 5.43347e-140 7.86713e-139 1.11005e-137 1.52544e-136 2.04036e-135 2.65453e-134 3.35691e-133 4.1233e-132 4.91554e-131 5.68284e-130 6.36581e-129 6.90306e-128 7.23952e-127 7.33522e-126 7.17259e-125 6.76072e-124 6.13512e-123 5.35288e-122 4.48399e-121 3.6007e-120 2.76716e-119 2.03156e-118 1.42209e-117 9.47148e-117 5.98828e-116 3.58504e-115 2.02677e-114 1.07877e-113 5.38809e-113 2.51616e-112 1.0942e-111 4.41153e-111 1.64094e-110 5.60123e-110 1.74435e-109 4.9254e-109 1.25284e-108 2.85251e-108 5.78037e-108 1.03823e-107 1.65064e-107 2.32855e-107 2.93363e-107 3.33314e-107 3.46056e-107 3.34763e-107 3.10428e-107 2.85407e-107 2.67666e-107 2.59966e-107 2.6215e-107 2.73251e-107 2.92432e-107 3.18521e-107 3.47441e-107 3.70393e-107 3.78676e-107 3.71673e-107 3.57252e-107 3.44008e-107 3.353e-107 3.30588e-107 3.29736e-107 3.33763e-107 3.42965e-107 3.56439e-107 3.7279e-107 3.89687e-107 4.02295e-107 4.04647e-107 3.94147e-107 3.73181e-107 3.46859e-107 3.21472e-107 3.0413e-107 3.01673e-107 3.18027e-107 3.50553e-107 3.88241e-107 4.1457e-107 4.15999e-107 3.91265e-107 3.52239e-107 3.14848e-107 2.89523e-107 2.78867e-107 2.80798e-107 2.92222e-107 3.10907e-107 3.34702e-107 3.58627e-107 3.73576e-107 3.71484e-107 3.53376e-107 3.29022e-107 3.07363e-107 2.90481e-107 2.7759e-107 2.70582e-107 2.73043e-107 2.86966e-107 3.12734e-107 3.48696e-107 3.86954e-107 4.12591e-107 4.1163e-107 3.81509e-107 3.34587e-107 2.90535e-107 2.63182e-107 2.54099e-107 2.57658e-107 2.68666e-107 2.83661e-107 2.99201e-107 3.13375e-107 3.28469e-107 3.4924e-107 3.77708e-107 4.09675e-107 4.35825e-107 4.47087e-107 4.40271e-107 4.19385e-107 3.92541e-107 3.68122e-107 3.5172e-107 3.4389e-107 3.39796e-107 3.31941e-107 3.15848e-107 2.94757e-107 2.78564e-107 2.76552e-107 2.90331e-107 3.12278e-107 3.29279e-107 3.29517e-107 3.0881e-107 2.71201e-107 2.23937e-107 1.7305e-107 1.23233e-107 7.93787e-108 4.56335e-108 2.32846e-108 1.05529e-108 4.26698e-109 1.54878e-109 5.08041e-110 1.51607e-110 4.14152e-111 1.04162e-111 2.42457e-112 5.24774e-113 1.06064e-113 2.00948e-114 3.58115e-115 6.02202e-116 9.58254e-117 1.44664e-117 2.07689e-118 2.84171e-119 3.71299e-120 4.64134e-121 5.56001e-122 6.39297e-123 7.06576e-124 7.51681e-125 7.70685e-126 7.62436e-127 7.28609e-128 6.73291e-129 6.02217e-130 5.21849e-131 4.38486e-132 3.57556e-133 2.83168e-134 2.17961e-135 1.63173e-136 1.18889e-137 8.43597e-139 5.83293e-140 3.93229e-141 2.58613e-142 1.66006e-143 1.04061e-144 6.37306e-146 3.81506e-147 2.23326e-148 1.27892e-149 7.1679e-151 3.93325e-152 2.1139e-153 1.11313e-154 5.73056e-156 0 
0 1.09857e-219 4.17561e-218 1.56752e-216 5.81509e-215 2.13159e-213 7.71985e-212 2.76201e-210 9.7613e-209 3.40726e-207 1.17454e-205 3.99804e-204 1.34366e-202 4.45802e-201 1.45999e-199 4.71911e-198 1.50526e-196 4.73751e-195 1.471e-193 4.50547e-192 1.36103e-190 4.05447e-189 1.19089e-187 3.44835e-186 9.84207e-185 2.76837e-183 7.67277e-182 2.09505e-180 5.63476e-179 1.4925e-177 3.89253e-176 9.99405e-175 2.52557e-173 6.2805e-172 1.53659e-170 3.69789e-169 8.75157e-168 2.03636e-166 4.65754e-165 1.04685e-163 2.3117e-162 5.01398e-161 1.06787e-159 2.23266e-158 4.58105e-157 9.22188e-156 1.82075e-154 3.52467e-153 6.68775e-152 1.24333e-150 2.26401e-149 4.03645e-148 7.04336e-147 1.20239e-145 2.0073e-144 3.27563e-143 5.22268e-142 8.13209e-141 1.23597e-139 1.83266e-138 2.64966e-137 3.73327e-136 5.12291e-135 6.8423e-134 8.88915e-133 1.12251e-131 1.37682e-130 1.63903e-129 1.8922e-128 2.11662e-127 2.29203e-126 2.40038e-125 2.42871e-124 2.37157e-123 2.2323e-122 2.02295e-121 1.7626e-120 1.47448e-119 1.18242e-118 9.07475e-118 6.65347e-117 4.65126e-116 3.09377e-115 1.95346e-114 1.16798e-113 6.59463e-113 3.50565e-112 1.74877e-111 8.15656e-111 3.54281e-110 1.4267e-109 5.30087e-109 1.80745e-108 5.62304e-108 1.58621e-107 4.03117e-107 9.17111e-107 1.85722e-106 3.33406e-106 5.29867e-106 7.4731e-106 9.41402e-106 1.0696e-105 1.11056e-105 1.07444e-105 9.96429e-106 9.16131e-106 8.59143e-106 8.34378e-106 8.41372e-106 8.77023e-106 9.38619e-106 1.02235e-105 1.1151e-105 1.18869e-105 1.2153e-105 1.19295e-105 1.1468e-105 1.10436e-105 1.07642e-105 1.06129e-105 1.05855e-105 1.07145e-105 1.10096e-105 1.14418e-105 1.19664e-105 1.25081e-105 1.29119e-105 1.29869e-105 1.26499e-105 1.19774e-105 1.11332e-105 1.03191e-105 9.76316e-106 9.68455e-106 1.02089e-105 1.12513e-105 1.24586e-105 1.33016e-105 1.33468e-105 1.2554e-105 1.13032e-105 1.01043e-105 9.29165e-106 8.94926e-106 9.01088e-106 9.37755e-106 9.97746e-106 1.07411e-105 1.15083e-105 1.19875e-105 1.19208e-105 1.1341e-105 1.05605e-105 9.86549e-106 9.32337e-106 8.90972e-106 8.68528e-106 8.76484e-106 9.21224e-106 1.00396e-105 1.11933e-105 1.24194e-105 1.32403e-105 1.32086e-105 1.22425e-105 1.07379e-105 9.32464e-106 8.44589e-106 8.1529e-106 8.26618e-106 8.61932e-106 9.10089e-106 9.60026e-106 1.0056e-105 1.05414e-105 1.12084e-105 1.21219e-105 1.31471e-105 1.39856e-105 1.4347e-105 1.41289e-105 1.34598e-105 1.25995e-105 1.18166e-105 1.12904e-105 1.10386e-105 1.09062e-105 1.06533e-105 1.0137e-105 9.46097e-106 8.94202e-106 8.87738e-106 9.31862e-106 1.00217e-105 1.05662e-105 1.05735e-105 9.90945e-106 8.7032e-106 7.18691e-106 5.55421e-106 3.95595e-106 2.54896e-106 1.46608e-106 7.48557e-107 3.39526e-107 1.37408e-107 4.99244e-108 1.63938e-108 4.89758e-109 1.33944e-109 3.3728e-110 7.86035e-111 1.70341e-111 3.44716e-112 6.53932e-113 1.1669e-113 1.96481e-114 3.13062e-115 4.73248e-116 6.80335e-117 9.32123e-118 1.21957e-118 1.52657e-119 1.83124e-120 2.10848e-121 2.3336e-122 2.48601e-123 2.55242e-124 2.52864e-125 2.41985e-126 2.23928e-127 2.00573e-128 1.74053e-129 1.46457e-130 1.19596e-131 9.48506e-133 7.31135e-134 5.48142e-135 3.99958e-136 2.84207e-137 1.96796e-138 1.32864e-139 8.75075e-141 5.62543e-142 3.53147e-143 2.16597e-144 1.29851e-145 7.61245e-147 4.36588e-148 2.45055e-149 1.34669e-150 7.2485e-152 3.82258e-153 1.97086e-154 0 
0 4.00407e-218 1.51946e-216 5.69479e-215 2.1092e-213 7.71899e-212 2.79103e-210 9.96968e-209 3.51774e-207 1.22592e-205 4.2192e-204 1.43388e-202 4.8113e-201 1.59376e-199 5.21123e-198 1.68174e-196 5.35577e-195 1.68295e-193 5.21733e-192 1.59548e-190 4.81211e-189 1.43126e-187 4.19734e-186 1.21348e-184 3.45804e-183 9.7116e-182 2.68746e-180 7.32674e-179 1.96751e-177 5.20337e-176 1.35497e-174 3.47353e-173 8.76434e-172 2.17614e-170 5.316e-169 1.27737e-167 3.01846e-166 7.01282e-165 1.60153e-163 3.59421e-162 7.92488e-161 1.71627e-159 3.64979e-158 7.61934e-157 1.56102e-155 3.1377e-154 6.18575e-153 1.19567e-151 2.26531e-150 4.2052e-149 7.64604e-148 1.36118e-146 2.37167e-145 4.04277e-144 6.73921e-143 1.09813e-141 1.74831e-140 2.71828e-139 4.1254e-138 6.10817e-137 8.81846e-136 1.24069e-134 1.70007e-133 2.2674e-132 2.94148e-131 3.70918e-130 4.54304e-129 5.40058e-128 6.22595e-127 6.95457e-126 7.52036e-125 7.86487e-124 7.94665e-123 7.74893e-122 7.28381e-121 6.59165e-120 5.73548e-119 4.79143e-118 3.83717e-117 2.94097e-116 2.1534e-115 1.50339e-114 9.98659e-114 6.29751e-113 3.76045e-112 2.12052e-111 1.12583e-110 5.60919e-110 2.61304e-109 1.13363e-108 4.55986e-108 1.6923e-107 5.76407e-107 1.79138e-106 5.04848e-106 1.28189e-105 2.91409e-105 5.89736e-105 1.05813e-104 1.68102e-104 2.37031e-104 2.98562e-104 3.39217e-104 3.52233e-104 3.40813e-104 3.16098e-104 2.90631e-104 2.72539e-104 2.64667e-104 2.6688e-104 2.78195e-104 2.97743e-104 3.24301e-104 3.53699e-104 3.77016e-104 3.85464e-104 3.78417e-104 3.63824e-104 3.50384e-104 3.41522e-104 3.36722e-104 3.35849e-104 3.39935e-104 3.49286e-104 3.62991e-104 3.79622e-104 3.96787e-104 4.09568e-104 4.11927e-104 4.01241e-104 3.79923e-104 3.53164e-104 3.27365e-104 3.0975e-104 3.07264e-104 3.23878e-104 3.56893e-104 3.95115e-104 4.21789e-104 4.23204e-104 3.9809e-104 3.58468e-104 3.20476e-104 2.94707e-104 2.83836e-104 2.85779e-104 2.97409e-104 3.16445e-104 3.40664e-104 3.64979e-104 3.80158e-104 3.78055e-104 3.59709e-104 3.34988e-104 3.12949e-104 2.95744e-104 2.82626e-104 2.75523e-104 2.78064e-104 2.92272e-104 3.18527e-104 3.55102e-104 3.93941e-104 4.19917e-104 4.18884e-104 3.88261e-104 3.40578e-104 2.95768e-104 2.67867e-104 2.58527e-104 2.6209e-104 2.73287e-104 2.88572e-104 3.04432e-104 3.18918e-104 3.34341e-104 3.55512e-104 3.84477e-104 4.16971e-104 4.43546e-104 4.55004e-104 4.4811e-104 4.26925e-104 3.99676e-104 3.74874e-104 3.58189e-104 3.50182e-104 3.4595e-104 3.37907e-104 3.21534e-104 3.00121e-104 2.83684e-104 2.81631e-104 2.95596e-104 3.17852e-104 3.35089e-104 3.35312e-104 3.14265e-104 2.76029e-104 2.27954e-104 1.76183e-104 1.25506e-104 8.08933e-105 4.65497e-105 2.37831e-105 1.07959e-105 4.37309e-106 1.59043e-106 5.22804e-107 1.56359e-107 4.28117e-108 1.0793e-108 2.51838e-109 5.4643e-110 1.10719e-110 2.10304e-111 3.75757e-112 6.3352e-113 1.01075e-113 1.52995e-114 2.20237e-115 3.02151e-116 3.95862e-117 4.96187e-118 5.96027e-119 6.87206e-120 7.61628e-121 8.12497e-122 8.35362e-123 8.28734e-124 7.94191e-125 7.35963e-126 6.60136e-127 5.73662e-128 4.83395e-129 3.95301e-130 3.13958e-131 2.42354e-132 1.81957e-133 1.32959e-134 9.46161e-136 6.56109e-137 4.43606e-138 2.92595e-139 1.8837e-140 1.18426e-141 7.27411e-143 4.36728e-144 2.56407e-145 1.47271e-146 8.27852e-148 4.55619e-149 2.45599e-150 1.29712e-151 6.69771e-153 0 
0 1.44173e-216 5.46217e-215 2.04386e-213 7.55764e-212 2.76139e-210 9.96855e-209 3.55508e-207 1.25238e-205 4.3575e-204 1.4973e-202 5.08041e-201 1.70198e-199 5.6289e-198 1.8376e-196 5.9208e-195 1.88259e-193 5.90636e-192 1.82815e-190 5.58174e-189 1.68086e-187 4.99153e-186 1.46153e-184 4.21882e-183 1.20035e-181 3.36584e-180 9.29973e-179 2.53142e-177 6.78734e-176 1.79224e-174 4.65984e-173 1.19273e-171 3.00486e-170 7.4495e-169 1.81702e-167 4.35941e-166 1.02857e-164 2.38606e-163 5.44081e-162 1.2192e-160 2.68415e-159 5.80425e-158 1.23246e-156 2.56904e-155 5.25545e-154 1.05478e-152 2.07633e-151 4.00746e-150 7.58121e-149 1.40525e-147 2.5513e-146 4.53522e-145 7.89038e-144 1.34303e-142 2.23552e-141 3.63738e-140 5.78254e-139 8.97764e-138 1.36052e-136 2.0115e-135 2.89985e-134 4.074e-133 5.57442e-132 7.42405e-131 9.61741e-130 1.21102e-128 1.48117e-127 1.75826e-126 2.02413e-125 2.25783e-124 2.43811e-123 2.54625e-122 2.56915e-121 2.50177e-120 2.34837e-119 2.1223e-118 1.84413e-117 1.5385e-116 1.23043e-115 9.41791e-115 6.88669e-114 4.80157e-113 3.18538e-112 2.00608e-111 1.19636e-110 6.73771e-110 3.57272e-109 1.77783e-108 8.27199e-108 3.58442e-107 1.44012e-106 5.33874e-106 1.81645e-105 5.63949e-105 1.58781e-104 4.02817e-104 9.15006e-104 1.85052e-103 3.31857e-103 5.27011e-103 7.42942e-103 9.35704e-103 1.06311e-102 1.10398e-102 1.06831e-102 9.90928e-103 9.1111e-103 8.54351e-103 8.29624e-103 8.36541e-103 8.72026e-103 9.33334e-103 1.01658e-102 1.10865e-102 1.18167e-102 1.20817e-102 1.18621e-102 1.14061e-102 1.09855e-102 1.07078e-102 1.05573e-102 1.05298e-102 1.06577e-102 1.09506e-102 1.13799e-102 1.1901e-102 1.24384e-102 1.28381e-102 1.29116e-102 1.25767e-102 1.19089e-102 1.10707e-102 1.02628e-102 9.71127e-103 9.63358e-103 1.01538e-102 1.11871e-102 1.23828e-102 1.32169e-102 1.32606e-102 1.24744e-102 1.12342e-102 1.00445e-102 9.23703e-103 8.89592e-103 8.95648e-103 9.32102e-103 9.91787e-103 1.06769e-102 1.14384e-102 1.19136e-102 1.18481e-102 1.12744e-102 1.05007e-102 9.81003e-103 9.27048e-103 8.85939e-103 8.63721e-103 8.71739e-103 9.1633e-103 9.98659e-103 1.11324e-102 1.23481e-102 1.31604e-102 1.31271e-102 1.21679e-102 1.06746e-102 9.27059e-103 8.3952e-103 8.10098e-103 8.21175e-103 8.56258e-103 9.04204e-103 9.53979e-103 9.99477e-103 1.04791e-102 1.11431e-102 1.20507e-102 1.30685e-102 1.39007e-102 1.42598e-102 1.40444e-102 1.33816e-102 1.25287e-102 1.17522e-102 1.12294e-102 1.09779e-102 1.08442e-102 1.05914e-102 1.00783e-102 9.40803e-103 8.89361e-103 8.82916e-103 9.26593e-103 9.96218e-103 1.05013e-102 1.0508e-102 9.84886e-103 8.65116e-103 7.1449e-103 5.52265e-103 3.93477e-103 2.53691e-103 1.46056e-103 7.4671e-104 3.39221e-104 1.37531e-104 5.00673e-105 1.64753e-105 4.93281e-106 1.35217e-106 3.41291e-107 7.97311e-108 1.73211e-108 3.51406e-109 6.68321e-110 1.19565e-110 2.01846e-111 3.22456e-112 4.88741e-113 7.04482e-114 9.67801e-115 1.26967e-115 1.59361e-116 1.91688e-117 2.21315e-118 2.4562e-119 2.62387e-120 2.70146e-121 2.68376e-122 2.57549e-123 2.39001e-124 2.14678e-125 1.86821e-126 1.57647e-127 1.29101e-128 1.02681e-129 7.93764e-131 5.96806e-132 4.36721e-133 3.11228e-134 2.16131e-135 1.46342e-136 9.66647e-138 6.23224e-139 3.92386e-140 2.4137e-141 1.45128e-142 8.53311e-144 4.90836e-145 2.7632e-146 1.52301e-147 8.22191e-149 4.34884e-150 2.24885e-151 0 
0 5.12769e-215 1.93955e-213 7.24575e-212 2.67496e-210 9.75797e-209 3.51693e-207 1.25223e-205 4.40425e-204 1.52996e-202 5.24877e-201 1.77809e-199 5.94729e-198 1.9638e-196 6.40082e-195 2.0591e-193 6.53684e-192 2.0476e-190 6.32781e-189 1.92899e-187 5.79976e-186 1.71962e-184 5.02723e-183 1.44888e-181 4.116e-180 1.15235e-178 3.17898e-177 8.63991e-176 2.31299e-174 6.09817e-173 1.58309e-171 4.04586e-170 1.01772e-168 2.51921e-167 6.13527e-166 1.46974e-164 3.46248e-163 8.01999e-162 1.82599e-160 4.08557e-159 8.9811e-158 1.93916e-156 4.1114e-155 8.55726e-154 1.74793e-152 3.50291e-151 6.88517e-150 1.32691e-148 2.5065e-147 4.63917e-146 8.41019e-145 1.49281e-143 2.59337e-142 4.40773e-141 7.3261e-140 1.19028e-138 1.8895e-137 2.92927e-136 4.43275e-135 6.54428e-134 9.42086e-133 1.32164e-131 1.8058e-130 2.40154e-129 3.10662e-128 3.9063e-127 4.77094e-126 5.6555e-125 6.5015e-124 7.24202e-123 7.80934e-122 8.14439e-121 8.20628e-120 7.98003e-119 7.48045e-118 6.7511e-117 5.85825e-116 4.88075e-115 3.8982e-114 2.97976e-113 2.17601e-112 1.51517e-111 1.00386e-110 6.3139e-110 3.76057e-109 2.11522e-108 1.12021e-107 5.56745e-107 2.58733e-106 1.11982e-105 4.49395e-105 1.66412e-104 5.65594e-104 1.7542e-103 4.93428e-103 1.25071e-102 2.83882e-102 5.73751e-102 1.02839e-101 1.63254e-101 2.30092e-101 2.89761e-101 3.29215e-101 3.41895e-101 3.30883e-101 3.06945e-101 2.82227e-101 2.64632e-101 2.56958e-101 2.59094e-101 2.70089e-101 2.89087e-101 3.14866e-101 3.43361e-101 3.65952e-101 3.74169e-101 3.67409e-101 3.5333e-101 3.40326e-101 3.31728e-101 3.27064e-101 3.26211e-101 3.30164e-101 3.39226e-101 3.52518e-101 3.68647e-101 3.85272e-101 3.97625e-101 3.99882e-101 3.89511e-101 3.68843e-101 3.42903e-101 3.17902e-101 3.00842e-101 2.98443e-101 3.14536e-101 3.46489e-101 3.83452e-101 4.09219e-101 4.10553e-101 3.86237e-101 3.4788e-101 3.1107e-101 2.86069e-101 2.75494e-101 2.77359e-101 2.88649e-101 3.07139e-101 3.30645e-101 3.54207e-101 3.68905e-101 3.66888e-101 3.49164e-101 3.25238e-101 3.03853e-101 2.87134e-101 2.74405e-101 2.67538e-101 2.70038e-101 2.83865e-101 3.09373e-101 3.44844e-101 3.82443e-101 4.0754e-101 4.06482e-101 3.76792e-101 3.30583e-101 2.87115e-101 2.59977e-101 2.5082e-101 2.54222e-101 2.65084e-101 2.79945e-101 2.95381e-101 3.09502e-101 3.24529e-101 3.45108e-101 3.73209e-101 4.04706e-101 4.30459e-101 4.41575e-101 4.34928e-101 4.14438e-101 3.88063e-101 3.64041e-101 3.47857e-101 3.40049e-101 3.35878e-101 3.28024e-101 3.12139e-101 2.91406e-101 2.75497e-101 2.73498e-101 2.86996e-101 3.08517e-101 3.25182e-101 3.2538e-101 3.04981e-101 2.67911e-101 2.2128e-101 1.71053e-101 1.21891e-101 7.86127e-102 4.52811e-102 2.31648e-102 1.05317e-102 4.2737e-103 1.55733e-103 5.12996e-104 1.53763e-104 4.21973e-105 1.06632e-105 2.4941e-106 5.42495e-107 1.10197e-107 2.09844e-108 3.75898e-109 6.35404e-110 1.01641e-110 1.54258e-111 2.22647e-112 3.06276e-113 4.02348e-114 5.05684e-115 6.09091e-116 7.04192e-117 7.82601e-118 8.37178e-119 8.63126e-120 8.58664e-121 8.25174e-122 7.6682e-123 6.8975e-124 6.0109e-125 5.07943e-126 4.16556e-127 3.31782e-128 2.56846e-129 1.93391e-130 1.41719e-131 1.01141e-132 7.03385e-134 4.76948e-135 3.15501e-136 2.03708e-137 1.28443e-138 7.9125e-140 4.7645e-141 2.8055e-142 1.61614e-143 9.11158e-145 5.02952e-146 2.71919e-147 1.4404e-148 7.45958e-150 0 