# vtk DataFile Version 3.0
Gray-Scott Simulation Output
ASCII
DATASET STRUCTURED_POINTS
DIMENSIONS 256 256 1
SPACING 1.0 1.0 1.0
ORIGIN 0 0 0
POINT_DATA 65536
SCALARS u double
LOOKUP_TABLE default
0 0 0 0 0 0 0 0 0 0 0 0 0 0 0 0 0 0 0 0 0 0 0 0 0 0 0 0 0 0 0 0 0 0 0 0 0 0 0 0 0 0 0 0 0 0 0 0 0 0 0 0 0 0 0 0 0 0 0 0 0 0 0 0 0 0 0 0 0 0 0 0 0 0 0 0 0 0 0 0 0 0 0 0 0 0 0 0 0 0 0 0 0 0 0 0 0 0 0 0 0 0 0 0 0 0 0 0 0 0 0 0 0 0 0 0 0 0 0 0 0 0 0 0 0 0 0 0 0 0 0 0 0 0 0 0 0 0 0 0 0 0 0 0 0 0 0 0 0 0 0 0 0 0 0 0 0 0 0 0 0 0 0 0 0 0 0 0 0 0 0 0 0 0 0 0 0 0 0 0 0 0 0 0 0 0 0 0 0 0 0 0 0 0 0 0 0 0 0 0 0 0 0 0 0 0 0 0 0 0 0 0 0 0 0 0 0 0 0 0 0 0 0 0 0 0 0 0 0 0 0 0 0 0 0 0 0 0 0 0 0 0 0 0 0 0 0 0 0 0 0 0 0 0 0 0 
0 7.03174e-173 1.25472e-171 2.20806e-170 3.84356e-169 6.61719e-168 1.12664e-166 1.89681e-165 3.15749e-164 5.19623e-163 8.45311e-162 1.35917e-160 2.15979e-159 3.39136e-158 5.26148e-157 8.06418e-156 1.22088e-154 1.82553e-153 2.69556e-152 3.93001e-151 5.65666e-150 8.03685e-149 1.12695e-147 1.55939e-146 2.12893e-145 2.86721e-144 3.80869e-143 4.98928e-142 6.44422e-141 8.20531e-140 1.02975e-138 1.27352e-137 1.55176e-136 1.86254e-135 2.20172e-134 2.56272e-133 2.9365e-132 3.3117e-131 3.67509e-130 4.01213e-129 4.30795e-128 4.54824e-127 4.72044e-126 4.81473e-125 4.82496e-124 4.74923e-123 4.59023e-122 4.35506e-121 4.05479e-120 3.70351e-119 3.31732e-118 2.91297e-117 2.50671e-116 2.11314e-115 1.74437e-114 1.4095e-113 1.11435e-112 8.61627e-112 6.51273e-111 4.81001e-110 3.46942e-109 2.44271e-108 1.67787e-107 1.12376e-106 7.33443e-106 4.66198e-105 2.88409e-104 1.73536e-103 1.01487e-102 5.76439e-102 3.17746e-101 1.6984e-100 8.79557e-100 4.40921e-99 2.13757e-98 1.00118e-97 4.52561e-97 1.97214e-96 8.27533e-96 3.33952e-95 1.2944e-94 4.8122e-94 1.71347e-93 5.8345e-93 1.89682e-92 5.87771e-92 1.73293e-91 4.85219e-91 1.2878e-90 3.23333e-90 7.66422e-90 1.71169e-89 3.59462e-89 7.08488e-89 1.30832e-88 2.26038e-88 3.6501e-88 5.50725e-88 7.76815e-88 1.0262e-87 1.27402e-87 1.49464e-87 1.67017e-87 1.79602e-87 1.88074e-87 1.94004e-87 1.98856e-87 2.03386e-87 2.07574e-87 2.11025e-87 2.13532e-87 2.15384e-87 2.17264e-87 2.19837e-87 2.23339e-87 2.27388e-87 2.31057e-87 2.33108e-87 2.32252e-87 2.27375e-87 2.17752e-87 2.03291e-87 1.84784e-87 1.64029e-87 1.43667e-87 1.26671e-87 1.15617e-87 1.12011e-87 1.15921e-87 1.26053e-87 1.40192e-87 1.55806e-87 1.70609e-87 1.82961e-87 1.92074e-87 1.98019e-87 2.0153e-87 2.03635e-87 2.05226e-87 2.06748e-87 2.08124e-87 2.08916e-87 2.08608e-87 2.06877e-87 2.03763e-87 1.99693e-87 1.95362e-87 1.91514e-87 1.88702e-87 1.87133e-87 1.86654e-87 1.86855e-87 1.87234e-87 1.8739e-87 1.87198e-87 1.86908e-87 1.87111e-87 1.88552e-87 1.91867e-87 1.97301e-87 2.04523e-87 2.12592e-87 2.20154e-87 2.25835e-87 2.28726e-87 2.28765e-87 2.2687e-87 2.24773e-87 2.24567e-87 2.28037e-87 2.3592e-87 2.47407e-87 2.6015e-87 2.70891e-87 2.76503e-87 2.75055e-87 2.66488e-87 2.52626e-87 2.36546e-87 2.21533e-87 2.10099e-87 2.0345e-87 2.01556e-87 2.03586e-87 2.08305e-87 2.14213e-87 2.19522e-87 2.22242e-87 2.20579e-87 2.13502e-87 2.01181e-87 1.85003e-87 1.67133e-87 1.49799e-87 1.34589e-87 1.22016e-87 1.11498e-87 1.01737e-87 9.13517e-88 7.94915e-88 6.61708e-88 5.2196e-88 3.87733e-88 2.70251e-88 1.76423e-88 1.07813e-88 6.16965e-89 3.30924e-89 1.66589e-89 7.88316e-90 3.51269e-90 1.47658e-90 5.8662e-91 2.20674e-91 7.8748e-92 2.67055e-92 8.62166e-93 2.65425e-93 7.80464e-94 2.19531e-94 5.91571e-95 1.52932e-95 3.79792e-96 9.07201e-97 2.08686e-97 4.6282e-98 9.90678e-99 2.04881e-99 4.09777e-100 7.93368e-101 1.48822e-101 2.70703e-102 4.7786e-103 8.19264e-104 1.36514e-104 2.21242e-105 3.48965e-106 5.36038e-107 8.02368e-108 1.17103e-108 1.66733e-109 2.31721e-110 3.14501e-111 4.17065e-112 5.40651e-113 6.85423e-114 8.5019e-115 1.03222e-115 1.22716e-116 1.42914e-117 1.631e-118 1.82471e-119 2.00191e-120 2.15432e-121 2.25145e-122 0 
0 1.2542e-171 2.23633e-170 3.93264e-169 6.84056e-168 1.17684e-166 2.00223e-165 3.36852e-164 5.60327e-163 9.21457e-162 1.49792e-160 2.40677e-159 3.82173e-158 5.99668e-157 9.29683e-156 1.42389e-154 2.15417e-153 3.21874e-152 4.74939e-151 6.91948e-150 9.95251e-149 1.41303e-147 1.98e-146 2.73783e-145 3.73516e-144 5.02692e-143 6.6729e-142 8.7352e-141 1.12746e-139 1.43458e-138 1.79913e-137 2.22347e-136 2.70739e-135 3.24738e-134 3.8361e-133 4.46202e-132 5.10931e-131 5.75821e-130 6.38569e-129 6.9666e-128 7.47517e-127 7.8868e-126 8.17989e-125 8.33768e-124 8.34979e-123 8.21326e-122 7.93299e-121 7.52158e-120 6.99835e-119 6.38786e-118 5.71799e-117 5.01773e-116 4.31511e-115 3.63525e-114 2.99893e-113 2.42165e-112 1.91333e-111 1.47846e-110 1.11681e-109 8.24302e-109 5.94188e-108 4.18087e-107 2.87001e-106 1.92101e-105 1.25301e-104 7.95966e-104 4.92118e-103 2.9593e-102 1.72962e-101 9.81828e-101 5.40887e-100 2.88944e-99 1.4955e-98 7.49261e-98 3.63034e-97 1.6994e-96 7.67751e-96 3.34383e-95 1.40235e-94 5.65622e-94 2.19121e-93 8.1421e-93 2.89768e-92 9.862e-92 3.20464e-91 9.92564e-91 2.92505e-90 8.18656e-90 2.17184e-89 5.45074e-89 1.29154e-88 2.88342e-88 6.05327e-88 1.19271e-87 2.20189e-87 3.80325e-87 6.14024e-87 9.26274e-87 1.30636e-86 1.72558e-86 2.14216e-86 2.51307e-86 2.80821e-86 3.01987e-86 3.16238e-86 3.26211e-86 3.34363e-86 3.4197e-86 3.49e-86 3.54799e-86 3.59018e-86 3.62144e-86 3.65321e-86 3.69662e-86 3.7556e-86 3.82373e-86 3.88542e-86 3.91989e-86 3.90549e-86 3.82349e-86 3.66171e-86 3.41864e-86 3.10759e-86 2.75879e-86 2.41663e-86 2.13104e-86 1.94534e-86 1.8848e-86 1.95056e-86 2.12088e-86 2.35852e-86 2.62095e-86 2.86976e-86 3.07739e-86 3.23062e-86 3.33061e-86 3.38969e-86 3.4251e-86 3.45181e-86 3.4773e-86 3.50027e-86 3.51339e-86 3.50804e-86 3.47883e-86 3.42646e-86 3.35809e-86 3.28544e-86 3.22096e-86 3.17389e-86 3.14769e-86 3.13976e-86 3.14319e-86 3.14955e-86 3.15214e-86 3.14885e-86 3.14392e-86 3.14726e-86 3.17143e-86 3.22705e-86 3.31825e-86 3.43946e-86 3.5749e-86 3.70184e-86 3.79722e-86 3.84582e-86 3.84659e-86 3.81493e-86 3.77989e-86 3.77661e-86 3.83497e-86 3.96737e-86 4.16018e-86 4.37402e-86 4.55422e-86 4.64831e-86 4.62396e-86 4.48014e-86 4.24749e-86 3.97761e-86 3.72561e-86 3.53363e-86 3.42194e-86 3.39008e-86 3.42408e-86 3.50322e-86 3.60235e-86 3.69139e-86 3.73696e-86 3.7089e-86 3.58993e-86 3.38284e-86 3.11092e-86 2.81051e-86 2.51903e-86 2.26317e-86 2.05161e-86 1.87459e-86 1.71036e-86 1.5357e-86 1.33632e-86 1.11244e-86 8.77575e-87 6.51977e-87 4.54498e-87 2.96755e-87 1.81385e-87 1.03822e-87 5.57018e-88 2.80484e-88 1.32768e-88 5.91796e-89 2.4885e-89 9.89e-90 3.72184e-90 1.32868e-90 4.50777e-91 1.45593e-91 4.48423e-92 1.31917e-92 3.71236e-93 1.00086e-93 2.58871e-94 6.43212e-95 1.53723e-95 3.53801e-96 7.85078e-97 1.6814e-97 3.47923e-98 6.96264e-99 1.3488e-99 2.53158e-100 4.60756e-101 8.13833e-102 1.3961e-102 2.32773e-103 3.77472e-104 5.9575e-105 9.15681e-106 1.37149e-106 2.00289e-107 2.85353e-108 3.96826e-109 5.3893e-110 7.15141e-111 9.27649e-112 1.17681e-112 1.46064e-113 1.77453e-114 2.11104e-115 2.46011e-116 2.80944e-117 3.14519e-118 3.45293e-119 3.71827e-120 3.88847e-121 0 
0 2.20623e-170 3.93099e-169 6.9077e-168 1.20067e-166 2.0641e-165 3.50924e-164 5.89958e-163 9.80637e-162 1.61149e-160 2.61774e-159 4.20299e-158 6.66914e-157 1.0457e-155 1.62002e-154 2.47942e-153 3.74836e-152 5.59676e-151 8.25236e-150 1.20145e-148 1.72685e-147 2.44999e-146 3.4306e-145 4.74029e-144 6.4625e-143 8.69135e-142 1.15291e-140 1.50816e-139 1.94524e-138 2.47339e-137 3.09975e-136 3.82819e-135 4.65813e-134 5.58332e-133 6.59098e-132 7.6611e-131 8.76645e-130 9.87305e-129 1.09414e-127 1.19286e-126 1.27907e-125 1.34859e-124 1.39776e-123 1.42376e-122 1.42487e-121 1.40063e-120 1.35194e-119 1.28097e-118 1.19107e-117 1.08645e-116 9.71876e-116 8.52295e-115 7.32471e-114 6.16665e-113 5.08392e-112 4.10265e-111 3.23938e-110 2.50153e-109 1.88841e-108 1.39293e-107 1.00344e-106 7.05607e-106 4.8407e-105 3.23807e-104 2.11079e-103 1.34004e-102 8.27994e-102 4.97605e-101 2.90661e-100 1.64897e-99 9.07878e-99 4.84708e-98 2.50727e-97 1.25545e-96 6.07949e-96 2.84427e-95 1.28427e-94 5.59039e-94 2.34327e-93 9.44626e-93 3.65756e-92 1.35838e-91 4.83189e-91 1.64368e-90 5.33855e-90 1.65272e-89 4.86832e-89 1.36194e-88 3.61161e-88 9.06053e-88 2.14605e-87 4.78942e-87 1.00513e-86 1.97984e-86 3.65402e-86 6.3099e-86 1.0185e-85 1.53617e-85 2.16622e-85 2.8611e-85 3.55162e-85 4.16648e-85 4.65582e-85 5.00683e-85 5.2432e-85 5.40856e-85 5.54362e-85 5.66955e-85 5.78593e-85 5.88199e-85 5.95202e-85 6.00406e-85 6.05699e-85 6.1292e-85 6.22715e-85 6.34017e-85 6.44246e-85 6.49958e-85 6.47568e-85 6.33973e-85 6.07158e-85 5.66871e-85 5.15323e-85 4.57525e-85 4.00831e-85 3.53516e-85 3.22755e-85 3.12733e-85 3.23638e-85 3.51868e-85 3.91253e-85 4.34744e-85 4.75979e-85 5.10395e-85 5.35797e-85 5.52381e-85 5.62185e-85 5.68059e-85 5.7248e-85 5.76687e-85 5.80467e-85 5.8261e-85 5.81694e-85 5.76834e-85 5.68148e-85 5.56828e-85 5.44809e-85 5.34154e-85 5.26387e-85 5.22073e-85 5.20779e-85 5.21356e-85 5.22411e-85 5.22832e-85 5.22278e-85 5.21452e-85 5.21995e-85 5.25988e-85 5.3519e-85 5.50282e-85 5.70341e-85 5.92757e-85 6.13767e-85 6.29559e-85 6.37613e-85 6.37759e-85 6.32544e-85 6.26772e-85 6.26256e-85 6.35938e-85 6.57862e-85 6.89774e-85 7.25155e-85 7.54962e-85 7.7052e-85 7.6648e-85 7.42676e-85 7.04176e-85 6.59512e-85 6.17805e-85 5.86024e-85 5.67526e-85 5.62238e-85 5.67853e-85 5.80942e-85 5.97339e-85 6.12065e-85 6.19591e-85 6.14925e-85 5.95201e-85 5.60882e-85 5.15816e-85 4.66021e-85 4.17691e-85 3.75252e-85 3.40149e-85 3.10774e-85 2.83526e-85 2.54562e-85 2.21513e-85 1.8441e-85 1.45489e-85 1.08101e-85 7.53696e-86 4.92198e-86 3.00907e-86 1.72274e-86 9.24505e-87 4.65659e-87 2.20486e-87 9.83107e-88 4.13538e-88 1.64411e-88 6.18955e-89 2.21052e-89 7.50271e-90 2.4243e-90 7.47013e-91 2.19858e-91 6.19011e-92 1.66969e-92 4.32077e-93 1.07413e-93 2.56842e-94 5.9145e-95 1.31313e-95 2.81387e-96 5.82582e-97 1.16652e-97 2.26108e-98 4.2463e-99 7.73294e-100 1.36667e-100 2.34588e-101 3.91365e-102 6.35037e-103 1.00287e-103 1.54238e-104 2.31158e-105 3.37788e-106 4.81553e-107 6.70095e-108 9.10637e-109 1.20916e-109 1.56948e-110 1.99231e-111 2.47445e-112 3.00816e-113 3.58096e-114 4.17584e-115 4.77195e-116 5.34578e-117 5.87275e-118 6.32828e-119 6.62231e-120 0 
0 3.83873e-169 6.83475e-168 1.20015e-166 2.08454e-165 3.58098e-164 6.08369e-163 1.02202e-161 1.69759e-160 2.78764e-159 4.52504e-158 7.26006e-157 1.15117e-155 1.8037e-154 2.79231e-153 4.27054e-152 6.45154e-151 9.62607e-150 1.41834e-148 2.06347e-147 2.96374e-146 4.20186e-145 5.87949e-144 8.11834e-143 1.106e-141 1.48641e-140 1.97034e-139 2.57567e-138 3.31979e-137 4.2182e-136 5.28273e-135 6.51966e-134 7.92759e-133 9.4956e-132 1.12016e-130 1.30114e-129 1.48784e-128 1.67451e-127 1.85444e-126 2.02039e-125 2.16493e-124 2.28105e-123 2.36262e-122 2.40496e-121 2.40521e-120 2.36272e-119 2.27905e-118 2.15798e-117 2.0052e-116 1.82787e-115 1.63403e-114 1.43204e-113 1.22991e-112 1.03478e-111 8.52545e-111 6.87547e-110 5.42528e-109 4.18686e-108 3.15866e-107 2.32842e-106 1.6763e-105 1.17802e-104 8.07656e-104 5.39929e-103 3.51744e-102 2.2317e-101 1.3781e-100 8.27711e-100 4.83193e-99 2.73961e-98 1.50747e-97 8.04358e-97 4.15834e-96 2.08099e-95 1.00715e-94 4.70928e-94 2.1252e-93 9.24593e-93 3.87345e-92 1.56065e-91 6.03967e-91 2.24193e-90 7.97078e-90 2.71013e-89 8.79809e-89 2.72248e-88 8.01583e-88 2.2415e-87 5.94156e-87 1.48998e-86 3.52778e-86 7.87028e-86 1.65114e-85 3.25133e-85 5.99902e-85 1.03568e-84 1.67137e-84 2.52043e-84 3.5537e-84 4.69323e-84 5.82559e-84 6.83398e-84 7.63665e-84 8.21256e-84 8.60042e-84 8.87167e-84 9.09303e-84 9.29928e-84 9.48988e-84 9.64732e-84 9.76229e-84 9.848e-84 9.93524e-84 1.00541e-83 1.0215e-83 1.04005e-83 1.05683e-83 1.06619e-83 1.06227e-83 1.03997e-83 9.95999e-84 9.29942e-84 8.45429e-84 7.50676e-84 6.57742e-84 5.80189e-84 5.29778e-84 5.13366e-84 5.3126e-84 5.77551e-84 6.42127e-84 7.13433e-84 7.81042e-84 8.37476e-84 8.7914e-84 9.0635e-84 9.22443e-84 9.32082e-84 9.39324e-84 9.46192e-84 9.52345e-84 9.55807e-84 9.54257e-84 9.46256e-84 9.32005e-84 9.1346e-84 8.93792e-84 8.76373e-84 8.63694e-84 8.56669e-84 8.5458e-84 8.55543e-84 8.57272e-84 8.57951e-84 8.57026e-84 8.55655e-84 8.5653e-84 8.63057e-84 8.78117e-84 9.02824e-84 9.35664e-84 9.72365e-84 1.00677e-83 1.03263e-83 1.04584e-83 1.04611e-83 1.03761e-83 1.0282e-83 1.0274e-83 1.04329e-83 1.07921e-83 1.13146e-83 1.18937e-83 1.23815e-83 1.2636e-83 1.25697e-83 1.21799e-83 1.15496e-83 1.08184e-83 1.01355e-83 9.61501e-84 9.31192e-84 9.2251e-84 9.31683e-84 9.53098e-84 9.79931e-84 1.00402e-83 1.01632e-83 1.00864e-83 9.76296e-84 9.20028e-84 8.46139e-84 7.64479e-84 6.85201e-84 6.15562e-84 5.57941e-84 5.09714e-84 4.64989e-84 4.17471e-84 3.63274e-84 3.0244e-84 2.38628e-84 1.77327e-84 1.23653e-84 8.07652e-85 4.93861e-85 2.82808e-85 1.51806e-85 7.64833e-86 3.6225e-86 1.61572e-86 6.79871e-87 2.70395e-87 1.01833e-87 3.6383e-88 1.23538e-88 3.99353e-89 1.23109e-89 3.62498e-90 1.0211e-90 2.75559e-91 7.13439e-92 1.77448e-92 4.24529e-93 9.78112e-94 2.17276e-94 4.65849e-95 9.65027e-96 1.93339e-96 3.74963e-97 7.04586e-98 1.28387e-98 2.27037e-99 3.89937e-100 6.50926e-101 1.05684e-101 1.67001e-102 2.57001e-103 3.85407e-104 5.63542e-105 8.03891e-106 1.11935e-106 1.52212e-107 2.02238e-108 2.62672e-109 3.33653e-110 4.14666e-111 5.04434e-112 6.00879e-113 7.01159e-114 8.01779e-115 8.9879e-116 9.88046e-117 1.0654e-117 1.11563e-118 0 
0 6.60598e-168 1.17532e-166 2.06231e-165 3.5794e-164 6.14449e-163 1.04312e-161 1.75111e-160 2.90651e-159 4.76938e-158 7.73633e-157 1.24034e-155 1.96529e-154 3.07709e-153 4.76023e-152 7.27505e-151 1.09826e-149 1.6375e-148 2.41104e-147 3.5052e-146 5.03091e-145 7.12757e-144 9.96626e-143 1.37516e-141 1.87214e-140 2.51428e-139 3.33052e-138 4.35068e-137 5.60371e-136 7.11523e-135 8.9047e-134 1.09821e-132 1.33444e-131 1.59728e-130 1.88296e-129 2.18567e-128 2.49759e-127 2.80902e-126 3.10875e-125 3.38463e-124 3.62433e-123 3.81615e-122 3.94995e-121 4.01803e-120 4.01577e-119 3.94219e-118 3.80006e-117 3.59581e-116 3.33903e-115 3.04173e-114 2.71739e-113 2.37992e-112 2.04267e-111 1.71749e-110 1.4141e-109 1.13969e-108 8.98732e-108 6.93138e-107 5.22588e-106 3.84986e-105 2.76989e-104 1.94532e-103 1.3329e-102 8.90513e-102 5.79783e-101 3.67629e-100 2.26879e-99 1.36186e-98 7.94539e-98 4.50223e-97 2.47591e-96 1.32033e-95 6.82188e-95 3.412e-94 1.65039e-93 7.71273e-93 3.47869e-92 1.51262e-91 6.33355e-91 2.55052e-90 9.86532e-90 3.66016e-89 1.30066e-88 4.42021e-88 1.43429e-87 4.43622e-87 1.30558e-86 3.64927e-86 9.66917e-86 2.4238e-85 5.73662e-85 1.27935e-84 2.68312e-84 5.28186e-84 9.74289e-84 1.68162e-83 2.71322e-83 4.09085e-83 5.76715e-83 7.61573e-83 9.4527e-83 1.10887e-82 1.23912e-82 1.33259e-82 1.39555e-82 1.43957e-82 1.47546e-82 1.50887e-82 1.53975e-82 1.56528e-82 1.58395e-82 1.59791e-82 1.61214e-82 1.63148e-82 1.65763e-82 1.68775e-82 1.71498e-82 1.73017e-82 1.72379e-82 1.68762e-82 1.61629e-82 1.50914e-82 1.37207e-82 1.21841e-82 1.06771e-82 9.4197e-83 8.60246e-83 8.3366e-83 8.62705e-83 9.37797e-83 1.04254e-82 1.15819e-82 1.26785e-82 1.35939e-82 1.42699e-82 1.47115e-82 1.49728e-82 1.51293e-82 1.52466e-82 1.53576e-82 1.54566e-82 1.55119e-82 1.5486e-82 1.53557e-82 1.51244e-82 1.48239e-82 1.45055e-82 1.42238e-82 1.40191e-82 1.39059e-82 1.38726e-82 1.38885e-82 1.39165e-82 1.39273e-82 1.39121e-82 1.38896e-82 1.39035e-82 1.4009e-82 1.42528e-82 1.46529e-82 1.51848e-82 1.57792e-82 1.63364e-82 1.67555e-82 1.69697e-82 1.69746e-82 1.68375e-82 1.66859e-82 1.66737e-82 1.69316e-82 1.75137e-82 1.836e-82 1.92977e-82 2.00873e-82 2.04991e-82 2.03915e-82 1.97601e-82 1.87393e-82 1.75551e-82 1.6449e-82 1.56058e-82 1.51146e-82 1.49736e-82 1.51218e-82 1.54684e-82 1.59028e-82 1.62927e-82 1.64914e-82 1.63665e-82 1.58417e-82 1.49291e-82 1.37307e-82 1.2406e-82 1.11195e-82 9.98909e-83 9.05342e-83 8.27019e-83 7.54397e-83 6.77278e-83 5.89354e-83 4.90684e-83 3.87187e-83 2.87756e-83 2.00687e-83 1.31104e-83 8.01829e-84 4.59268e-84 2.46587e-84 1.2427e-84 5.88755e-85 2.6268e-85 1.10569e-85 4.39907e-86 1.65735e-86 5.9237e-87 2.01221e-87 6.5075e-88 2.00697e-88 5.91224e-89 1.66616e-89 4.49857e-90 1.16528e-90 2.89977e-91 6.94103e-92 1.60005e-92 3.55621e-93 7.62881e-94 1.58121e-94 3.16966e-95 6.15075e-96 1.15644e-96 2.10843e-97 3.73069e-98 6.41126e-99 1.07088e-99 1.73972e-100 2.75076e-101 4.23577e-102 6.35602e-103 9.29954e-104 1.32741e-104 1.84945e-105 2.51653e-106 3.34575e-107 4.34832e-108 5.52691e-109 6.87331e-110 8.36668e-111 9.97285e-112 1.16448e-112 1.33247e-113 1.49468e-114 1.6442e-115 1.7741e-116 1.85896e-117 0 
0 1.12423e-166 1.99875e-165 3.5046e-164 6.07827e-163 1.04265e-161 1.76879e-160 2.96714e-159 4.92133e-158 8.06974e-157 1.30803e-155 2.09562e-154 3.31807e-153 5.19145e-152 8.02538e-151 1.22564e-149 1.84894e-148 2.7548e-147 4.05326e-146 5.8885e-145 8.44561e-144 1.19569e-142 1.67072e-141 2.30366e-140 3.13399e-139 4.20601e-138 5.56754e-137 7.26785e-136 9.35452e-135 1.18695e-133 1.48444e-132 1.82948e-131 2.22148e-130 2.65721e-129 3.1303e-128 3.63106e-127 4.14642e-126 4.66027e-125 5.15402e-124 5.60761e-123 6.00068e-122 6.314e-121 6.531e-120 6.63912e-119 6.63096e-118 6.50513e-117 6.26644e-116 5.9257e-115 5.49892e-114 5.00602e-113 4.46931e-112 3.91173e-111 3.35522e-110 2.81927e-109 2.31978e-108 1.86842e-107 1.47245e-106 1.13489e-105 8.55106e-105 6.29554e-104 4.52668e-103 3.17716e-102 2.17559e-101 1.45263e-100 9.4518e-100 5.98957e-99 3.6942e-98 2.21614e-97 1.29219e-96 7.31783e-96 4.02195e-95 2.14356e-94 1.1069e-93 5.5331e-93 2.67488e-92 1.24935e-91 5.63193e-91 2.44759e-90 1.0243e-89 4.12269e-89 1.59383e-88 5.91033e-88 2.09924e-87 7.13071e-87 2.31272e-86 7.14992e-86 2.10329e-85 5.87648e-85 1.55641e-84 3.89996e-84 9.22695e-84 2.05703e-83 4.3127e-83 8.48723e-83 1.56513e-82 2.70076e-82 4.35665e-82 6.56763e-82 9.25763e-82 1.22239e-81 1.51716e-81 1.77971e-81 1.98876e-81 2.13883e-81 2.23992e-81 2.31057e-81 2.36812e-81 2.42168e-81 2.47116e-81 2.51209e-81 2.54209e-81 2.56458e-81 2.58752e-81 2.61867e-81 2.66071e-81 2.70908e-81 2.75277e-81 2.77714e-81 2.76691e-81 2.70886e-81 2.5944e-81 2.4225e-81 2.20261e-81 1.95613e-81 1.71442e-81 1.51275e-81 1.38171e-81 1.33911e-81 1.38575e-81 1.50624e-81 1.67428e-81 1.85982e-81 2.03575e-81 2.18262e-81 2.2911e-81 2.362e-81 2.40397e-81 2.4291e-81 2.4479e-81 2.46562e-81 2.48139e-81 2.49013e-81 2.48585e-81 2.46486e-81 2.42773e-81 2.37955e-81 2.32857e-81 2.28352e-81 2.25081e-81 2.23279e-81 2.22753e-81 2.23012e-81 2.23462e-81 2.23632e-81 2.23384e-81 2.23018e-81 2.23237e-81 2.24925e-81 2.28829e-81 2.35238e-81 2.43757e-81 2.53279e-81 2.62207e-81 2.68924e-81 2.7236e-81 2.72446e-81 2.7026e-81 2.67843e-81 2.67658e-81 2.718e-81 2.8113e-81 2.94688e-81 3.09706e-81 3.22349e-81 3.2894e-81 3.27212e-81 3.17096e-81 3.00745e-81 2.81775e-81 2.64055e-81 2.50544e-81 2.42668e-81 2.40403e-81 2.42773e-81 2.48321e-81 2.55276e-81 2.61518e-81 2.64695e-81 2.62683e-81 2.54261e-81 2.39621e-81 2.20395e-81 1.99138e-81 1.7849e-81 1.6034e-81 1.45312e-81 1.3273e-81 1.21066e-81 1.08686e-81 9.45765e-82 7.87461e-82 6.21419e-82 4.6189e-82 3.22179e-82 2.10508e-82 1.28772e-82 7.37737e-83 3.96197e-83 1.9972e-83 9.46491e-84 4.2242e-84 1.77867e-84 7.07903e-85 2.66801e-85 9.53971e-86 3.24185e-86 1.04886e-86 3.23617e-87 9.5376e-88 2.6891e-88 7.26391e-89 1.88252e-89 4.68695e-90 1.12246e-90 2.58885e-91 5.75694e-92 1.23565e-92 2.56251e-93 5.1396e-94 9.97904e-95 1.87728e-95 3.42465e-96 6.06317e-97 1.04258e-97 1.74246e-98 2.83246e-99 4.48124e-100 6.90467e-101 1.03672e-101 1.51777e-102 2.1678e-103 3.02225e-104 4.11492e-105 5.47429e-106 7.11922e-107 9.05465e-108 1.12677e-108 1.37247e-109 1.63701e-110 1.91271e-111 2.19007e-112 2.45829e-113 2.706e-114 2.92173e-115 3.06348e-116 0 
0 1.89187e-165 3.3611e-164 5.88907e-163 1.02064e-161 1.74951e-160 2.96577e-159 4.97149e-158 8.23982e-157 1.35015e-155 2.1869e-154 3.50114e-153 5.53952e-152 8.66091e-151 1.33792e-149 2.04182e-148 3.07801e-147 4.58277e-146 6.73804e-145 9.78198e-144 1.40199e-142 1.98347e-141 2.76953e-140 3.81607e-139 5.18789e-138 6.95759e-137 9.20342e-136 1.20057e-134 1.5442e-133 1.958e-132 2.44705e-131 3.01375e-130 3.65699e-129 4.37128e-128 5.14601e-127 5.96514e-126 6.80715e-125 7.64553e-124 8.44984e-123 9.18727e-122 9.82462e-121 1.03307e-119 1.06786e-118 1.08481e-117 1.08275e-116 1.0615e-115 1.02188e-114 9.65677e-114 8.95538e-113 8.14733e-112 7.26908e-111 6.35808e-110 5.45002e-109 4.57651e-108 3.76327e-107 3.02912e-106 2.38565e-105 1.83758e-104 1.38369e-103 1.01808e-102 7.31573e-102 5.13154e-101 3.51172e-100 2.34332e-99 1.5238e-98 9.65046e-98 5.94857e-97 3.56642e-96 2.07828e-95 1.17627e-94 6.46117e-94 3.44161e-93 1.77619e-92 8.87369e-92 4.28746e-91 2.00144e-90 9.01737e-90 3.91679e-89 1.63828e-88 6.59051e-88 2.54659e-87 9.43871e-87 3.35083e-86 1.13767e-85 3.68811e-85 1.13969e-84 3.35115e-84 9.35897e-84 2.47775e-83 6.20621e-83 1.46779e-82 3.27113e-82 6.85592e-82 1.34882e-81 2.48668e-81 4.28997e-81 6.91885e-81 1.04284e-80 1.46978e-80 1.94055e-80 2.40837e-80 2.82508e-80 3.15696e-80 3.39524e-80 3.55577e-80 3.66793e-80 3.75922e-80 3.8441e-80 3.92252e-80 3.98743e-80 4.0351e-80 4.07094e-80 4.10754e-80 4.15713e-80 4.22398e-80 4.30079e-80 4.37016e-80 4.40883e-80 4.39257e-80 4.30043e-80 4.1188e-80 3.84604e-80 3.49716e-80 3.10612e-80 2.72268e-80 2.40281e-80 2.19498e-80 2.12748e-80 2.20154e-80 2.39276e-80 2.6594e-80 2.9538e-80 3.23295e-80 3.46602e-80 3.6382e-80 3.75078e-80 3.81744e-80 3.85734e-80 3.88713e-80 3.91512e-80 3.93997e-80 3.95362e-80 3.94662e-80 3.91318e-80 3.85422e-80 3.77785e-80 3.69712e-80 3.62585e-80 3.57419e-80 3.54579e-80 3.53759e-80 3.54177e-80 3.5489e-80 3.55157e-80 3.54755e-80 3.54168e-80 3.54509e-80 3.57178e-80 3.63361e-80 3.73513e-80 3.8701e-80 4.02097e-80 4.16243e-80 4.26889e-80 4.32342e-80 4.32489e-80 4.29042e-80 4.25231e-80 4.24956e-80 4.31533e-80 4.46325e-80 4.67806e-80 4.91595e-80 5.11615e-80 5.22048e-80 5.19304e-80 5.03276e-80 4.77371e-80 4.47317e-80 4.19241e-80 3.97828e-80 3.85342e-80 3.81743e-80 3.85489e-80 3.94273e-80 4.05286e-80 4.15168e-80 4.2019e-80 4.16987e-80 4.0362e-80 3.80392e-80 3.49886e-80 3.16152e-80 2.83375e-80 2.54552e-80 2.30679e-80 2.10689e-80 1.92161e-80 1.72504e-80 1.50111e-80 1.24991e-80 9.86436e-81 7.33287e-81 5.11558e-81 3.34304e-81 2.0454e-81 1.17207e-81 6.29605e-82 3.17463e-82 1.50491e-82 6.71849e-83 2.82985e-83 1.12666e-83 4.24783e-84 1.51943e-84 5.16549e-85 1.67192e-85 5.16083e-86 1.52167e-86 4.29229e-87 1.16e-87 3.00772e-88 7.49211e-89 1.79517e-89 4.14253e-90 9.21677e-91 1.97931e-91 4.10697e-92 8.24184e-93 1.60113e-93 3.01379e-94 5.50109e-95 9.74502e-96 1.67667e-96 2.80386e-97 4.56053e-98 7.21956e-99 1.11306e-99 1.67225e-100 2.44971e-101 3.50103e-102 4.88402e-103 6.65399e-104 8.85772e-105 1.15266e-105 1.46696e-106 1.82667e-107 2.22643e-108 2.65729e-109 3.10684e-110 3.55968e-111 3.99827e-112 4.40406e-113 4.7583e-114 4.9924e-115 0 
0 3.14777e-164 5.58829e-163 9.78426e-162 1.69449e-160 2.90248e-159 4.91672e-158 8.23591e-157 1.36405e-155 2.23347e-154 3.61506e-153 5.78343e-152 9.14401e-151 1.42862e-149 2.20534e-148 3.36321e-147 5.06636e-146 7.53783e-145 1.1075e-143 1.60668e-142 2.30114e-141 3.25326e-140 4.53934e-139 6.25027e-138 8.4912e-137 1.13798e-135 1.50426e-134 1.96092e-133 2.52042e-132 3.19361e-131 3.98851e-130 4.90881e-129 5.95244e-128 7.1102e-127 8.36464e-126 9.6895e-125 1.10497e-123 1.24022e-122 1.36976e-121 1.4883e-120 1.59048e-119 1.67128e-118 1.72641e-117 1.75264e-116 1.74816e-115 1.71272e-114 1.6477e-113 1.55605e-112 1.44209e-111 1.31112e-110 1.16902e-109 1.02185e-108 8.75349e-108 7.34578e-107 6.03659e-106 4.85587e-105 3.82193e-104 2.94204e-103 2.21396e-102 1.62795e-101 1.16909e-100 8.19544e-100 5.60503e-99 3.73788e-98 2.42919e-97 1.53752e-96 9.47166e-96 5.67531e-95 3.30527e-94 1.86965e-93 1.02639e-92 5.46405e-92 2.81836e-91 1.40725e-90 6.79558e-90 3.17054e-89 1.4277e-88 6.19808e-88 2.59112e-87 1.04183e-86 4.02363e-86 1.49059e-85 5.28915e-85 1.79491e-84 5.8161e-84 1.79647e-83 5.28007e-83 1.47398e-82 3.90074e-82 9.76674e-82 2.30903e-81 5.14415e-81 1.07781e-80 2.11985e-80 3.90712e-80 6.73891e-80 1.08663e-79 1.63755e-79 2.30767e-79 3.04655e-79 3.7808e-79 4.43492e-79 4.95594e-79 5.33011e-79 5.58223e-79 5.75831e-79 5.9015e-79 6.03453e-79 6.15743e-79 6.25925e-79 6.33415e-79 6.39062e-79 6.44834e-79 6.52645e-79 6.63155e-79 6.7522e-79 6.86109e-79 6.92177e-79 6.89623e-79 6.75162e-79 6.46658e-79 6.03857e-79 5.49116e-79 4.87766e-79 4.27612e-79 3.77437e-79 3.44844e-79 3.34266e-79 3.45897e-79 3.75908e-79 4.1775e-79 4.63945e-79 5.07748e-79 5.44324e-79 5.71349e-79 5.89026e-79 5.99497e-79 6.05764e-79 6.10431e-79 6.14805e-79 6.18673e-79 6.20781e-79 6.19652e-79 6.14384e-79 6.05126e-79 5.93152e-79 5.80509e-79 5.6936e-79 5.6129e-79 5.56867e-79 5.55603e-79 5.56269e-79 5.57389e-79 5.578e-79 5.57159e-79 5.56228e-79 5.56751e-79 5.60926e-79 5.70608e-79 5.86511e-79 6.07656e-79 6.31294e-79 6.53461e-79 6.70148e-79 6.78704e-79 6.78953e-79 6.73577e-79 6.67634e-79 6.67232e-79 6.77561e-79 7.0075e-79 7.34409e-79 7.71671e-79 8.03024e-79 8.19354e-79 8.15045e-79 7.8993e-79 7.49344e-79 7.02259e-79 6.58268e-79 6.24709e-79 6.05131e-79 5.99478e-79 6.05334e-79 6.19086e-79 6.36331e-79 6.51803e-79 6.59655e-79 6.54611e-79 6.33631e-79 5.97184e-79 5.49316e-79 4.96374e-79 4.44918e-79 3.99655e-79 3.62151e-79 3.30742e-79 3.01636e-79 2.70771e-79 2.35622e-79 1.96201e-79 1.54857e-79 1.15129e-79 8.03283e-80 5.25035e-80 3.21299e-80 1.84153e-80 9.89454e-81 4.99038e-81 2.36632e-81 1.05673e-81 4.45243e-82 1.77327e-82 6.68814e-83 2.39322e-83 8.1393e-84 2.63554e-84 8.13879e-85 2.40079e-85 6.77515e-86 1.83186e-86 4.75204e-87 1.1843e-87 2.8391e-88 6.55486e-89 1.45916e-89 3.13523e-90 6.50895e-91 1.30693e-91 2.54036e-92 4.78437e-93 8.73792e-94 1.54879e-94 2.66629e-95 4.46142e-96 7.26088e-97 1.15012e-97 1.77425e-98 2.66724e-99 3.90966e-100 5.59098e-101 7.8044e-102 1.06394e-102 1.41719e-103 1.84537e-104 2.35004e-105 2.92816e-106 3.57127e-107 4.26513e-108 4.98993e-109 5.72097e-110 6.43006e-111 7.08731e-112 7.66243e-113 8.04462e-114 0 
0 5.17772e-163 9.18547e-162 1.60707e-160 2.78119e-159 4.76045e-158 8.05826e-157 1.34885e-155 2.23239e-154 3.65265e-153 5.90789e-152 9.44476e-151 1.49222e-149 2.32972e-148 3.59378e-147 5.47673e-146 8.24434e-145 1.22574e-143 1.79965e-142 2.60897e-141 3.73401e-140 5.27528e-139 7.35555e-138 1.01209e-136 1.37399e-135 1.84012e-134 2.43071e-133 3.16642e-132 4.06706e-131 5.14981e-130 6.42718e-129 7.90473e-128 9.57874e-127 1.1434e-125 1.34421e-124 1.55606e-123 1.77329e-122 1.98899e-121 2.19527e-120 2.38364e-119 2.54558e-118 2.67312e-117 2.75945e-116 2.79953e-115 2.79052e-114 2.73214e-113 2.62669e-112 2.47897e-111 2.29592e-110 2.08603e-109 1.85876e-108 1.62371e-107 1.39002e-106 1.16574e-105 9.57366e-105 7.69623e-104 6.05368e-103 4.65708e-102 3.50239e-101 2.57375e-100 1.84717e-99 1.29409e-98 8.84514e-98 5.89507e-97 3.82881e-96 2.42194e-95 1.49112e-94 8.92938e-94 5.19739e-93 2.93824e-92 1.6121e-91 8.57725e-91 4.42168e-90 2.20658e-89 1.06497e-88 4.96604e-88 2.23502e-87 9.6978e-87 4.05209e-86 1.62842e-85 6.28595e-85 2.32754e-84 8.25501e-84 2.80009e-83 9.06905e-83 2.79999e-82 8.22604e-82 2.29543e-81 6.07219e-81 1.51979e-80 3.59176e-80 7.99915e-80 1.67547e-79 3.29437e-79 6.07033e-79 1.04675e-78 1.68753e-78 2.54269e-78 3.58278e-78 4.72951e-78 5.86909e-78 6.88438e-78 7.69324e-78 8.27424e-78 8.66575e-78 8.9391e-78 9.16118e-78 9.36736e-78 9.55782e-78 9.71573e-78 9.83211e-78 9.9201e-78 1.00101e-77 1.01317e-77 1.02951e-77 1.04825e-77 1.06516e-77 1.07457e-77 1.0706e-77 1.04816e-77 1.00393e-77 9.37517e-78 8.52587e-78 7.57409e-78 6.64097e-78 5.86271e-78 5.35727e-78 5.19338e-78 5.37402e-78 5.83976e-78 6.48902e-78 7.20579e-78 7.88544e-78 8.45301e-78 8.87245e-78 9.1469e-78 9.30955e-78 9.40685e-78 9.47917e-78 9.54673e-78 9.6063e-78 9.63846e-78 9.62046e-78 9.53839e-78 9.39464e-78 9.20902e-78 9.01323e-78 8.84078e-78 8.71614e-78 8.64801e-78 8.62877e-78 8.63928e-78 8.65665e-78 8.66291e-78 8.65282e-78 8.63819e-78 8.64612e-78 8.71069e-78 8.86061e-78 9.10694e-78 9.43451e-78 9.80072e-78 1.01442e-77 1.04028e-77 1.05356e-77 1.05397e-77 1.04568e-77 1.03652e-77 1.03594e-77 1.05198e-77 1.08792e-77 1.14007e-77 1.19779e-77 1.24634e-77 1.27161e-77 1.26492e-77 1.22601e-77 1.16313e-77 1.09019e-77 1.02203e-77 9.7003e-78 9.39677e-78 9.30895e-78 9.39947e-78 9.61236e-78 9.87938e-78 1.01189e-77 1.02403e-77 1.01617e-77 9.83611e-78 9.27063e-78 8.52792e-78 7.70634e-78 6.90758e-78 6.20471e-78 5.62213e-78 5.13414e-78 4.68202e-78 4.20277e-78 3.65723e-78 3.04549e-78 2.40393e-78 1.78742e-78 1.2473e-78 8.15387e-79 4.99077e-79 2.86107e-79 1.53762e-79 7.75706e-80 3.67923e-80 1.64353e-80 6.92705e-81 2.75977e-81 1.04126e-81 3.72733e-82 1.26815e-82 4.10802e-83 1.26913e-83 3.74533e-84 1.05743e-84 2.86039e-85 7.4237e-86 1.85103e-86 4.43966e-87 1.02554e-87 2.28411e-88 4.91036e-89 1.01997e-89 2.0491e-90 3.98517e-91 7.50964e-92 1.3723e-92 2.43377e-93 4.19225e-94 7.01885e-95 1.14298e-95 1.81155e-96 2.79629e-97 4.20622e-98 6.16927e-99 8.82774e-100 1.23302e-100 1.68196e-101 2.24182e-102 2.92098e-103 3.72217e-104 4.64078e-105 5.66365e-106 6.76841e-107 7.92372e-108 9.09047e-109 1.02239e-109 1.12763e-110 1.21993e-111 1.28161e-112 0 