# vtk DataFile Version 3.0
Gray-Scott Simulation Output
ASCII
DATASET STRUCTURED_POINTS
DIMENSIONS 256 256 1
SPACING 1.0 1.0 1.0
ORIGIN 0 0 0
POINT_DATA 65536
SCALARS u double
LOOKUP_TABLE default
0 0 0 0 0 0 0 0 0 0 0 0 0 0 0 0 0 0 0 0 0 0 0 0 0 0 0 0 0 0 0 0 0 0 0 0 0 0 0 0 0 0 0 0 0 0 0 0 0 0 0 0 0 0 0 0 0 0 0 0 0 0 0 0 0 0 0 0 0 0 0 0 0 0 0 0 0 0 0 0 0 0 0 0 0 0 0 0 0 0 0 0 0 0 0 0 0 0 0 0 0 0 0 0 0 0 0 0 0 0 0 0 0 0 0 0 0 0 0 0 0 0 0 0 0 0 0 0 0 0 0 0 0 0 0 0 0 0 0 0 0 0 0 0 0 0 0 0 0 0 0 0 0 0 0 0 0 0 0 0 0 0 0 0 0 0 0 0 0 0 0 0 0 0 0 0 0 0 0 0 0 0 0 0 0 0 0 0 0 0 0 0 0 0 0 0 0 0 0 0 0 0 0 0 0 0 0 0 0 0 0 0 0 0 0 0 0 0 0 0 0 0 0 0 0 0 0 0 0 0 0 0 0 0 0 0 0 0 0 0 0 0 0 0 0 0 0 0 0 0 0 0 0 0 0 0 
0 2.46861e-87 1.10027e-86 4.62197e-86 1.91901e-85 7.89433e-85 3.21785e-84 1.29958e-83 5.19986e-83 2.06112e-82 8.09286e-82 3.14744e-81 1.21236e-80 4.62483e-80 1.74707e-79 6.53496e-79 2.42022e-78 8.87385e-78 3.22089e-77 1.1572e-76 4.11505e-76 1.44822e-75 5.04366e-75 1.73809e-74 5.92611e-74 1.99894e-73 6.66993e-73 2.20135e-72 7.1856e-72 2.31952e-71 7.40369e-71 2.33652e-70 7.28984e-70 2.24825e-69 6.85336e-69 2.06465e-68 6.14645e-68 1.80796e-67 5.25399e-67 1.50825e-66 4.27654e-66 1.19755e-65 3.31146e-65 9.0411e-65 2.43693e-64 6.48377e-64 1.70263e-63 4.4123e-63 1.12824e-62 2.84627e-62 7.08312e-62 1.73856e-61 4.20835e-61 1.00445e-60 2.36363e-60 5.48278e-60 1.25352e-59 2.82426e-59 6.26991e-59 1.37131e-58 2.95435e-58 6.2687e-58 1.30983e-57 2.69472e-57 5.45764e-57 1.08799e-56 2.13458e-56 4.12096e-56 7.8275e-56 1.46259e-55 2.68805e-55 4.85855e-55 8.63515e-55 1.50894e-54 2.59214e-54 4.37699e-54 7.26398e-54 1.1847e-53 1.89862e-53 2.98965e-53 4.62514e-53 7.02949e-53 1.04953e-52 1.53929e-52 2.21768e-52 3.13855e-52 4.36339e-52 5.95943e-52 7.99665e-52 1.05434e-51 1.36613e-51 1.73987e-51 2.1785e-51 2.68246e-51 3.24928e-51 3.87333e-51 4.54589e-51 5.25543e-51 5.98824e-51 6.72928e-51 7.46311e-51 8.17492e-51 8.85146e-51 9.48172e-51 1.00574e-50 1.05732e-50 1.10263e-50 1.14164e-50 1.17448e-50 1.2014e-50 1.22269e-50 1.23862e-50 1.24945e-50 1.25536e-50 1.25653e-50 1.25311e-50 1.2453e-50 1.23342e-50 1.21791e-50 1.1994e-50 1.17871e-50 1.15682e-50 1.13485e-50 1.11399e-50 1.09539e-50 1.0801e-50 1.06895e-50 1.06251e-50 1.06102e-50 1.06438e-50 1.07219e-50 1.08377e-50 1.09826e-50 1.11466e-50 1.13196e-50 1.14921e-50 1.16557e-50 1.18035e-50 1.19307e-50 1.20345e-50 1.21136e-50 1.21688e-50 1.22018e-50 1.22157e-50 1.22141e-50 1.2201e-50 1.21805e-50 1.21567e-50 1.21333e-50 1.21138e-50 1.21012e-50 1.2098e-50 1.21062e-50 1.21273e-50 1.21622e-50 1.22114e-50 1.22748e-50 1.23519e-50 1.24417e-50 1.25431e-50 1.26543e-50 1.27736e-50 1.28992e-50 1.30291e-50 1.3161e-50 1.32927e-50 1.34216e-50 1.35448e-50 1.3659e-50 1.37608e-50 1.38463e-50 1.39119e-50 1.39545e-50 1.39715e-50 1.39614e-50 1.39238e-50 1.38598e-50 1.37712e-50 1.36607e-50 1.35312e-50 1.33855e-50 1.32255e-50 1.30517e-50 1.28636e-50 1.26592e-50 1.2435e-50 1.2187e-50 1.19108e-50 1.1602e-50 1.1257e-50 1.08732e-50 1.04495e-50 9.98587e-51 9.48407e-51 8.94712e-51 8.37929e-51 7.78604e-51 7.17379e-51 6.5498e-51 5.92199e-51 5.29873e-51 4.68856e-51 4.09987e-51 3.54052e-51 3.0175e-51 2.53653e-51 2.1018e-51 1.71583e-51 1.37936e-51 1.09148e-51 8.49827e-52 6.50847e-52 4.90167e-52 3.62934e-52 2.64151e-52 1.88953e-52 1.32828e-52 9.17536e-53 6.22784e-53 4.15359e-53 2.72197e-53 1.75278e-53 1.10911e-53 6.89681e-54 4.21484e-54 2.53168e-54 1.49477e-54 8.676e-55 4.95102e-55 2.77813e-55 1.53301e-55 8.32008e-56 4.44182e-56 2.33293e-56 1.20563e-56 6.13135e-57 3.06897e-57 1.51212e-57 7.33497e-58 3.50345e-58 1.64794e-58 7.6348e-59 3.48442e-59 1.56676e-59 6.94189e-60 3.03123e-60 1.30463e-60 5.53537e-61 2.31557e-61 9.5517e-62 3.88559e-62 1.5586e-62 6.15425e-63 2.36143e-63 7.96353e-64 0 
0 1.09836e-86 4.89568e-86 2.05668e-85 8.53979e-85 3.51328e-84 1.43217e-83 5.78448e-83 2.31467e-82 9.17563e-82 3.60308e-81 1.40142e-80 5.39866e-80 2.05965e-79 7.78131e-79 2.91093e-78 1.07819e-77 3.95369e-77 1.43522e-76 5.15714e-76 1.83414e-75 6.4558e-75 2.24866e-74 7.75021e-74 2.64288e-73 8.91614e-73 2.97556e-72 9.82222e-72 3.2067e-71 1.03531e-70 3.30522e-70 1.04329e-69 3.25564e-69 1.00427e-68 3.06195e-68 9.22639e-68 2.74729e-67 8.08284e-67 2.34943e-66 6.74603e-66 1.91324e-65 5.3589e-65 1.48221e-64 4.04783e-64 1.09133e-63 2.90439e-63 7.62896e-63 1.97755e-62 5.05809e-62 1.27639e-61 3.17728e-61 7.80096e-61 1.88885e-60 4.50967e-60 1.06151e-59 2.46309e-59 5.63304e-59 1.26956e-58 2.81932e-58 6.16815e-58 1.32929e-57 2.82144e-57 5.89722e-57 1.21362e-56 2.45873e-56 4.90307e-56 9.62252e-56 1.85828e-55 3.53075e-55 6.59931e-55 1.21323e-54 2.19349e-54 3.89963e-54 6.81624e-54 1.17124e-53 1.97823e-53 3.28384e-53 5.35698e-53 8.58707e-53 1.35244e-52 2.09271e-52 3.18115e-52 4.75035e-52 6.96813e-52 1.00403e-51 1.4211e-51 1.97586e-51 2.69876e-51 3.62148e-51 4.77494e-51 6.18693e-51 7.87929e-51 9.86517e-51 1.21464e-50 1.47115e-50 1.75348e-50 2.05764e-50 2.3784e-50 2.70953e-50 3.0442e-50 3.37542e-50 3.6965e-50 4.00144e-50 4.2853e-50 4.54436e-50 4.77623e-50 4.97975e-50 5.15478e-50 5.30198e-50 5.42251e-50 5.5177e-50 5.58885e-50 5.63708e-50 5.66329e-50 5.66822e-50 5.65257e-50 5.61729e-50 5.56371e-50 5.49386e-50 5.41054e-50 5.31741e-50 5.21891e-50 5.12008e-50 5.02623e-50 4.94257e-50 4.87378e-50 4.82364e-50 4.79468e-50 4.78799e-50 4.80315e-50 4.83831e-50 4.89045e-50 4.95562e-50 5.0294e-50 5.10723e-50 5.1848e-50 5.25834e-50 5.32478e-50 5.38196e-50 5.42855e-50 5.46408e-50 5.48881e-50 5.50361e-50 5.50981e-50 5.50903e-50 5.50309e-50 5.49383e-50 5.48308e-50 5.47255e-50 5.46377e-50 5.45808e-50 5.45662e-50 5.46028e-50 5.46972e-50 5.48538e-50 5.50746e-50 5.53593e-50 5.57055e-50 5.61091e-50 5.65642e-50 5.70638e-50 5.76e-50 5.81644e-50 5.87478e-50 5.93408e-50 5.99328e-50 6.05123e-50 6.10663e-50 6.158e-50 6.20376e-50 6.24224e-50 6.2718e-50 6.29098e-50 6.29865e-50 6.29414e-50 6.27729e-50 6.24852e-50 6.20871e-50 6.15907e-50 6.10092e-50 6.03548e-50 5.9636e-50 5.88561e-50 5.80122e-50 5.70949e-50 5.60894e-50 5.49772e-50 5.37382e-50 5.23529e-50 5.08049e-50 4.90825e-50 4.71798e-50 4.50974e-50 4.28423e-50 4.04279e-50 3.78734e-50 3.52027e-50 3.24448e-50 2.96321e-50 2.68003e-50 2.39872e-50 2.12313e-50 1.85708e-50 1.60414e-50 1.3675e-50 1.14978e-50 9.52901e-51 7.78037e-51 6.25549e-51 4.95046e-51 3.85472e-51 2.95231e-51 2.22349e-51 1.64633e-51 1.1982e-51 8.5705e-52 6.02431e-52 4.161e-52 2.82397e-52 1.88316e-52 1.2339e-52 7.94416e-53 5.02589e-53 3.12463e-53 1.90914e-53 1.14648e-53 6.76751e-54 3.92705e-54 2.24043e-54 1.25682e-54 6.93341e-55 3.76192e-55 2.0078e-55 1.05423e-55 5.44655e-56 2.76908e-56 1.38562e-56 6.82506e-57 3.30971e-57 1.58036e-57 7.43141e-58 3.4419e-58 1.57037e-58 7.05902e-59 3.12673e-59 1.36491e-59 5.87281e-60 2.49104e-60 1.04176e-60 4.29603e-61 1.74712e-61 7.00619e-62 2.7657e-62 1.06095e-62 3.57718e-63 0 
0 4.60499e-86 2.05269e-85 8.624e-85 3.58113e-84 1.4734e-83 6.00674e-83 2.42631e-82 9.70979e-82 3.84945e-81 1.51175e-80 5.88059e-80 2.26562e-79 8.64457e-79 3.2663e-78 1.22205e-77 4.52698e-77 1.66026e-76 6.02773e-76 2.16624e-75 7.7054e-75 2.71257e-74 9.44987e-74 3.25753e-73 1.11104e-72 3.74891e-72 1.25135e-71 4.13144e-71 1.34907e-70 4.35647e-70 1.39109e-69 4.39191e-69 1.37083e-68 4.22955e-68 1.28986e-67 3.8876e-67 1.15787e-66 3.40746e-66 9.90697e-66 2.84539e-65 8.07199e-65 2.26155e-64 6.25697e-64 1.70923e-63 4.60959e-63 1.22713e-62 3.22429e-62 8.3605e-62 2.13909e-61 5.39962e-61 1.34456e-60 3.30229e-60 7.99853e-60 1.91031e-59 4.49816e-59 1.04409e-58 2.38867e-58 5.38541e-58 1.19637e-57 2.61837e-57 5.64482e-57 1.19856e-56 2.50606e-56 5.1592e-56 1.0456e-55 2.08583e-55 4.09501e-55 7.91094e-55 1.50362e-54 2.81136e-54 5.17019e-54 9.35071e-54 1.66292e-53 2.90757e-53 4.99764e-53 8.44348e-53 1.40201e-52 2.28773e-52 3.66809e-52 5.77854e-52 8.94343e-52 1.35978e-51 2.03091e-51 2.97956e-51 4.29386e-51 6.07822e-51 8.45182e-51 1.15449e-50 1.54929e-50 2.04279e-50 2.64684e-50 3.37074e-50 4.22004e-50 5.19542e-50 6.29187e-50 7.49827e-50 8.79746e-50 1.01669e-49 1.15798e-49 1.3007e-49 1.44186e-49 1.57859e-49 1.70833e-49 1.829e-49 1.93902e-49 2.03739e-49 2.12363e-49 2.19771e-49 2.25994e-49 2.31083e-49 2.35096e-49 2.38091e-49 2.40115e-49 2.41209e-49 2.41402e-49 2.40726e-49 2.39219e-49 2.36938e-49 2.33968e-49 2.30428e-49 2.26472e-49 2.22289e-49 2.18092e-49 2.14107e-49 2.10555e-49 2.07634e-49 2.05506e-49 2.04277e-49 2.03994e-49 2.04639e-49 2.06134e-49 2.08348e-49 2.11116e-49 2.14249e-49 2.17553e-49 2.20845e-49 2.23965e-49 2.26784e-49 2.29208e-49 2.31182e-49 2.32687e-49 2.33733e-49 2.34359e-49 2.34619e-49 2.34583e-49 2.34329e-49 2.33934e-49 2.33476e-49 2.33028e-49 2.32654e-49 2.32411e-49 2.32348e-49 2.32502e-49 2.32901e-49 2.33564e-49 2.345e-49 2.35706e-49 2.37173e-49 2.38883e-49 2.40813e-49 2.4293e-49 2.45204e-49 2.47597e-49 2.50071e-49 2.52586e-49 2.55097e-49 2.57556e-49 2.59907e-49 2.62088e-49 2.64031e-49 2.65665e-49 2.66921e-49 2.67737e-49 2.68064e-49 2.67874e-49 2.67161e-49 2.65941e-49 2.64253e-49 2.62149e-49 2.59684e-49 2.5691e-49 2.53865e-49 2.50562e-49 2.4699e-49 2.43107e-49 2.38853e-49 2.34147e-49 2.28904e-49 2.23041e-49 2.16489e-49 2.09195e-49 2.01135e-49 1.92309e-49 1.82746e-49 1.72502e-49 1.61656e-49 1.50309e-49 1.38583e-49 1.26615e-49 1.14556e-49 1.02567e-49 9.08142e-50 7.94596e-50 6.86576e-50 5.85453e-50 4.92362e-50 4.08143e-50 3.33307e-50 2.68022e-50 2.12132e-50 1.65192e-50 1.26527e-50 9.52941e-51 7.05577e-51 5.13499e-51 3.67274e-51 2.58138e-51 1.78277e-51 1.20976e-51 8.06594e-52 5.28408e-52 3.40136e-52 2.15142e-52 1.33724e-52 8.16851e-53 4.90411e-53 2.89403e-53 1.67887e-53 9.57536e-54 5.3699e-54 2.96146e-54 1.60632e-54 8.57041e-55 4.49859e-55 2.32336e-55 1.18083e-55 5.90673e-56 2.90846e-56 1.40993e-56 6.73002e-57 3.16361e-57 1.46474e-57 6.68063e-58 3.00202e-58 1.32927e-58 5.80071e-59 2.49505e-59 1.05797e-59 4.42301e-60 1.82338e-60 7.41304e-61 2.9718e-61 1.17277e-61 4.49757e-62 1.51609e-62 0 
0 1.90816e-85 8.50626e-85 3.57401e-84 1.48423e-83 6.10715e-83 2.48997e-82 1.00587e-81 4.02576e-81 1.59618e-80 6.26917e-80 2.43893e-79 9.39756e-79 3.58612e-78 1.35517e-77 5.07088e-77 1.87872e-76 6.89113e-76 2.50226e-75 8.99399e-75 3.19971e-74 1.1266e-73 3.92542e-73 1.3534e-72 4.61684e-72 1.55813e-71 5.20187e-71 1.71779e-70 5.61041e-70 1.81212e-69 5.78767e-69 1.82767e-68 5.70595e-68 1.76094e-67 5.37154e-67 1.61937e-66 4.82433e-66 1.42011e-65 4.12999e-65 1.18651e-64 3.36691e-64 9.43589e-64 2.61137e-63 7.13571e-63 1.92501e-62 5.12623e-62 1.34735e-61 3.49477e-61 8.94455e-61 2.2586e-60 5.62606e-60 1.38226e-59 3.34918e-59 8.00179e-59 1.88484e-58 4.3766e-58 1.00164e-57 2.2591e-57 5.02047e-57 1.09919e-56 2.37058e-56 5.03533e-56 1.05323e-55 2.1691e-55 4.39772e-55 8.77612e-55 1.72361e-54 3.33099e-54 6.33346e-54 1.18462e-53 2.17932e-53 3.94285e-53 7.0143e-53 1.22684e-52 2.1094e-52 3.56493e-52 5.92118e-52 9.66463e-52 1.55002e-51 2.44244e-51 3.78105e-51 5.75004e-51 8.58968e-51 1.26042e-50 1.81667e-50 2.57193e-50 3.57666e-50 4.88598e-50 6.55715e-50 8.64601e-50 1.12026e-49 1.42659e-49 1.78592e-49 2.1985e-49 2.66214e-49 3.1721e-49 3.72105e-49 4.29939e-49 4.89578e-49 5.4978e-49 6.09278e-49 6.66865e-49 7.21464e-49 7.72192e-49 8.18396e-49 8.59659e-49 8.95792e-49 9.26793e-49 9.52801e-49 9.74038e-49 9.90762e-49 1.00322e-48 1.01161e-48 1.01611e-48 1.01685e-48 1.01396e-48 1.00759e-48 9.97988e-49 9.85499e-49 9.70621e-49 9.54003e-49 9.36433e-49 9.18807e-49 9.02071e-49 8.87154e-49 8.74891e-49 8.65957e-49 8.60801e-49 8.59618e-49 8.62332e-49 8.68614e-49 8.77918e-49 8.89544e-49 9.02699e-49 9.1657e-49 9.30388e-49 9.43479e-49 9.55302e-49 9.65466e-49 9.73741e-49 9.80043e-49 9.84421e-49 9.87031e-49 9.8811e-49 9.8795e-49 9.86872e-49 9.85206e-49 9.83278e-49 9.81389e-49 9.79814e-49 9.78791e-49 9.7852e-49 9.79161e-49 9.80831e-49 9.83607e-49 9.87524e-49 9.92578e-49 9.98727e-49 1.0059e-48 1.01398e-48 1.02286e-48 1.0324e-48 1.04243e-48 1.05281e-48 1.06335e-48 1.07389e-48 1.08421e-48 1.09407e-48 1.10323e-48 1.11139e-48 1.11825e-48 1.12353e-48 1.12697e-48 1.12835e-48 1.12756e-48 1.12457e-48 1.11946e-48 1.11238e-48 1.10356e-48 1.09322e-48 1.0816e-48 1.06884e-48 1.05501e-48 1.04005e-48 1.02381e-48 1.006e-48 9.86318e-49 9.64383e-49 9.39852e-49 9.12426e-49 8.81888e-49 8.48125e-49 8.11138e-49 7.7104e-49 7.28057e-49 6.82518e-49 6.34842e-49 5.85533e-49 5.35168e-49 4.84381e-49 4.33849e-49 3.84271e-49 3.36338e-49 2.90706e-49 2.4796e-49 2.08586e-49 1.72946e-49 1.41262e-49 1.13611e-49 8.99307e-50 7.00373e-50 5.3647e-50 4.04054e-50 2.99167e-50 2.17717e-50 1.55709e-50 1.0943e-50 7.55657e-51 5.12702e-51 3.41783e-51 2.23863e-51 1.44071e-51 9.11064e-52 5.66147e-52 3.4574e-52 2.07514e-52 1.22424e-52 7.09992e-53 4.04815e-53 2.2695e-53 1.25121e-53 6.78439e-54 3.61854e-54 1.89871e-54 9.80277e-55 4.98042e-55 2.49042e-55 1.22584e-55 5.94038e-56 2.8345e-56 1.33195e-56 6.1647e-57 2.81069e-57 1.26257e-57 5.58859e-58 2.43791e-58 1.04825e-58 4.44333e-59 1.85698e-59 7.65282e-60 3.11025e-60 1.24646e-60 4.91734e-61 1.88524e-61 6.35348e-62 0 
0 7.83381e-85 3.49241e-84 1.4675e-83 6.0948e-83 2.50804e-82 1.02266e-81 4.13162e-81 1.65376e-80 6.5577e-80 2.57589e-79 1.00223e-78 3.86222e-78 1.47401e-77 5.57092e-77 2.08486e-76 7.72534e-76 2.83408e-75 1.02925e-74 3.70007e-74 1.31656e-73 4.63631e-73 1.61573e-72 5.57169e-72 1.90103e-71 6.417e-71 2.14277e-70 7.07747e-70 2.31204e-69 7.46936e-69 2.38615e-68 7.53695e-68 2.35358e-67 7.26527e-67 2.21675e-66 6.68464e-66 1.99198e-65 5.86527e-65 1.70623e-64 4.90324e-64 1.39179e-63 3.9017e-63 1.08012e-62 2.95242e-62 7.96731e-62 2.12236e-61 5.58014e-61 1.44787e-60 3.70698e-60 9.36382e-60 2.3333e-59 5.73474e-59 1.39002e-58 3.32223e-58 7.82851e-58 1.81847e-57 4.16338e-57 9.39371e-57 2.0884e-56 4.57416e-56 9.8688e-56 2.09704e-55 4.38808e-55 9.04066e-55 1.83366e-54 3.66068e-54 7.1923e-54 1.39049e-53 2.64485e-53 4.94881e-53 9.10761e-53 1.64835e-52 2.93345e-52 5.13251e-52 8.82772e-52 1.49238e-51 2.47954e-51 4.04833e-51 6.49456e-51 1.02365e-50 1.58506e-50 2.41102e-50 3.60243e-50 5.28703e-50 7.62152e-50 1.07915e-49 1.50089e-49 2.05049e-49 2.75197e-49 3.62872e-49 4.70167e-49 5.98713e-49 7.49466e-49 9.22512e-49 1.11692e-48 1.33066e-48 1.56065e-48 1.80282e-48 2.05241e-48 2.30418e-48 2.55282e-48 2.79327e-48 3.02103e-48 3.23243e-48 3.42476e-48 3.59632e-48 3.74636e-48 3.87492e-48 3.98262e-48 4.07044e-48 4.13948e-48 4.1908e-48 4.22528e-48 4.24363e-48 4.2464e-48 4.23411e-48 4.20743e-48 4.16732e-48 4.11525e-48 4.05327e-48 3.98405e-48 3.91089e-48 3.83751e-48 3.76783e-48 3.70573e-48 3.65468e-48 3.6175e-48 3.59605e-48 3.59115e-48 3.60247e-48 3.62864e-48 3.6674e-48 3.7158e-48 3.77057e-48 3.8283e-48 3.88579e-48 3.94024e-48 3.9894e-48 4.03165e-48 4.06602e-48 4.09218e-48 4.11034e-48 4.12114e-48 4.12557e-48 4.12485e-48 4.12032e-48 4.11336e-48 4.1053e-48 4.09742e-48 4.09084e-48 4.08656e-48 4.08541e-48 4.08805e-48 4.09497e-48 4.10649e-48 4.12276e-48 4.14375e-48 4.1693e-48 4.19909e-48 4.23269e-48 4.2696e-48 4.30922e-48 4.35093e-48 4.39407e-48 4.43793e-48 4.48175e-48 4.52467e-48 4.56572e-48 4.60383e-48 4.6378e-48 4.66639e-48 4.68839e-48 4.70271e-48 4.70849e-48 4.70523e-48 4.69283e-48 4.67159e-48 4.64217e-48 4.60549e-48 4.56255e-48 4.51426e-48 4.46128e-48 4.40386e-48 4.3418e-48 4.27441e-48 4.20059e-48 4.11896e-48 4.028e-48 3.92627e-48 3.81249e-48 3.68577e-48 3.5456e-48 3.39196e-48 3.2253e-48 3.04655e-48 2.85702e-48 2.65845e-48 2.45292e-48 2.24281e-48 2.03076e-48 1.8196e-48 1.61226e-48 1.41164e-48 1.22051e-48 1.04136e-48 8.76229e-49 7.26681e-49 5.93668e-49 4.77538e-49 3.78052e-49 2.94451e-49 2.25556e-49 1.69886e-49 1.25784e-49 9.15351e-50 6.54604e-50 4.59998e-50 3.17608e-50 2.15459e-50 1.43607e-50 9.4042e-51 6.0509e-51 3.82552e-51 2.37663e-51 1.45099e-51 8.70641e-52 5.13487e-52 2.97701e-52 1.69686e-52 9.50989e-53 5.24116e-53 2.84092e-53 1.51471e-53 7.94509e-54 4.10045e-54 2.08252e-54 1.04097e-54 5.12197e-55 2.48117e-55 1.18347e-55 5.55914e-56 2.57199e-56 1.17222e-56 5.26371e-57 2.32906e-57 1.01564e-57 4.36547e-58 1.84977e-58 7.72794e-59 3.18366e-59 1.29345e-59 5.18186e-60 2.0436e-60 7.83246e-61 2.63898e-61 0 
0 3.18662e-84 1.42074e-83 5.97037e-83 2.47983e-82 1.02056e-81 4.16176e-81 1.68155e-80 6.73144e-80 2.66954e-79 1.04873e-78 4.08091e-78 1.57283e-77 6.00349e-77 2.26929e-76 8.4938e-76 3.1478e-75 1.15496e-74 4.19515e-74 1.50837e-73 5.36801e-73 1.8907e-72 6.59021e-72 2.27301e-71 7.7569e-71 2.61891e-70 8.74692e-70 2.88969e-69 9.44202e-69 3.05107e-68 9.74923e-68 3.08016e-67 9.62088e-67 2.97063e-66 9.06628e-66 2.73468e-65 8.15144e-65 2.40083e-64 6.98613e-64 2.00822e-63 5.70209e-63 1.59901e-62 4.428e-62 1.21075e-61 3.26837e-61 8.70934e-61 2.29066e-60 5.94564e-60 1.5228e-59 3.84798e-59 9.59204e-59 2.35839e-58 5.71857e-58 1.3673e-57 3.22315e-57 7.48992e-57 1.7155e-56 3.87217e-56 8.61203e-56 1.88703e-55 4.07294e-55 8.65821e-55 1.81248e-54 3.73573e-54 7.58001e-54 1.51388e-53 2.97558e-53 5.75501e-53 1.09509e-52 2.04983e-52 3.77389e-52 6.83281e-52 1.21643e-51 2.12909e-51 3.66323e-51 6.19499e-51 1.02961e-50 1.68155e-50 2.69843e-50 4.25433e-50 6.58924e-50 1.00252e-49 1.49824e-49 2.19928e-49 3.17089e-49 4.49038e-49 6.24593e-49 8.53379e-49 1.14539e-48 1.51033e-48 1.9569e-48 2.49182e-48 3.11903e-48 3.8388e-48 4.64714e-48 5.53554e-48 6.49099e-48 7.49654e-48 8.53222e-48 9.57623e-48 1.06064e-47 1.16018e-47 1.25438e-47 1.34171e-47 1.42107e-47 1.49177e-47 1.55352e-47 1.60636e-47 1.65055e-47 1.68654e-47 1.71478e-47 1.73572e-47 1.74975e-47 1.75715e-47 1.75815e-47 1.75297e-47 1.74189e-47 1.72528e-47 1.70376e-47 1.67815e-47 1.64957e-47 1.61937e-47 1.58907e-47 1.56031e-47 1.53468e-47 1.51361e-47 1.49827e-47 1.48943e-47 1.48741e-47 1.49209e-47 1.50291e-47 1.51891e-47 1.53889e-47 1.56149e-47 1.58531e-47 1.60903e-47 1.63148e-47 1.65174e-47 1.66915e-47 1.68331e-47 1.69407e-47 1.70154e-47 1.70596e-47 1.70777e-47 1.70745e-47 1.70556e-47 1.70267e-47 1.69933e-47 1.69607e-47 1.69335e-47 1.69157e-47 1.69109e-47 1.69217e-47 1.69501e-47 1.69975e-47 1.70645e-47 1.71509e-47 1.72561e-47 1.73789e-47 1.75173e-47 1.76694e-47 1.78326e-47 1.80045e-47 1.81824e-47 1.83632e-47 1.85438e-47 1.87208e-47 1.88902e-47 1.90474e-47 1.91877e-47 1.93057e-47 1.93966e-47 1.94558e-47 1.94798e-47 1.94665e-47 1.94155e-47 1.9328e-47 1.92067e-47 1.90556e-47 1.88787e-47 1.86798e-47 1.84617e-47 1.82254e-47 1.79702e-47 1.76931e-47 1.73897e-47 1.70542e-47 1.66803e-47 1.62621e-47 1.57943e-47 1.52731e-47 1.46963e-47 1.40637e-47 1.33771e-47 1.26402e-47 1.18583e-47 1.10384e-47 1.01891e-47 9.32012e-48 8.44235e-48 7.56751e-48 6.70776e-48 5.87522e-48 5.08147e-48 4.33689e-48 3.6502e-48 3.02794e-48 2.4742e-48 1.99055e-48 1.57606e-48 1.22765e-48 9.40459e-49 7.08358e-49 5.24467e-49 3.81645e-49 2.72909e-49 1.91756e-49 1.32381e-49 8.9791e-50 5.98359e-50 3.9176e-50 2.52011e-50 1.59288e-50 9.89324e-51 6.03837e-51 3.62214e-51 2.13561e-51 1.23775e-51 7.05265e-52 3.95124e-52 2.17687e-52 1.17952e-52 6.28663e-53 3.2963e-53 1.70058e-53 8.63354e-54 4.3139e-54 2.12179e-54 1.02744e-54 4.89879e-55 2.30023e-55 1.06381e-55 4.84662e-56 2.17548e-56 9.6223e-57 4.19444e-57 1.8022e-57 7.63361e-58 3.18799e-58 1.31287e-58 5.33203e-59 2.13537e-59 8.41851e-60 3.22552e-60 1.08649e-60 0 
0 1.28428e-83 5.72633e-83 2.40659e-82 9.99683e-82 4.11453e-81 1.67804e-80 6.78084e-80 2.71475e-79 1.07674e-78 4.23048e-78 1.64641e-77 6.3463e-77 2.42272e-76 9.15906e-76 3.4287e-75 1.27087e-74 4.66372e-74 1.69428e-73 6.09286e-73 2.16872e-72 7.64001e-72 2.6635e-71 9.18841e-71 3.13629e-70 1.05911e-69 3.5381e-69 1.16913e-68 3.821e-68 1.23501e-67 3.94723e-67 1.2474e-66 3.89726e-66 1.20367e-65 3.67458e-65 1.10868e-64 3.30566e-64 9.73898e-64 2.83479e-63 8.15135e-63 2.3152e-62 6.49449e-62 1.79906e-61 4.92082e-61 1.32881e-60 3.54218e-60 9.31968e-60 2.4199e-59 6.20014e-59 1.56731e-58 3.9084e-58 9.6133e-58 2.33192e-57 5.57779e-57 1.31539e-56 3.05794e-56 7.00681e-56 1.58221e-55 3.52044e-55 7.71707e-55 1.66635e-54 3.5438e-54 7.4216e-54 1.53033e-53 3.10644e-53 6.20678e-53 1.22048e-52 2.36148e-52 4.49539e-52 8.41807e-52 1.55045e-51 2.80826e-51 5.0014e-51 8.75712e-51 1.50726e-50 2.54986e-50 4.2393e-50 6.92583e-50 1.11174e-49 1.75327e-49 2.71624e-49 4.13364e-49 6.17897e-49 9.07196e-49 1.30821e-48 1.85286e-48 2.57755e-48 3.52201e-48 4.72742e-48 6.23385e-48 8.07697e-48 1.02844e-47 1.28721e-47 1.58408e-47 1.91738e-47 2.28352e-47 2.67711e-47 3.0911e-47 3.51722e-47 3.94645e-47 4.36965e-47 4.77816e-47 5.16433e-47 5.52196e-47 5.84655e-47 6.13534e-47 6.3872e-47 6.60237e-47 6.78209e-47 6.92817e-47 7.04259e-47 7.12726e-47 7.18375e-47 7.21327e-47 7.21678e-47 7.19514e-47 7.14944e-47 7.08127e-47 6.99305e-47 6.88819e-47 6.77119e-47 6.64757e-47 6.52359e-47 6.4059e-47 6.30102e-47 6.21482e-47 6.15206e-47 6.11589e-47 6.10768e-47 6.12688e-47 6.17115e-47 6.23666e-47 6.31844e-47 6.41091e-47 6.50834e-47 6.60532e-47 6.6971e-47 6.77991e-47 6.85101e-47 6.90879e-47 6.95271e-47 6.9831e-47 7.0011e-47 7.00837e-47 7.00697e-47 6.99917e-47 6.98728e-47 6.97357e-47 6.96017e-47 6.94899e-47 6.94169e-47 6.93967e-47 6.94404e-47 6.95562e-47 6.97495e-47 7.00228e-47 7.03757e-47 7.08053e-47 7.13065e-47 7.18719e-47 7.2493e-47 7.316e-47 7.38624e-47 7.4589e-47 7.53279e-47 7.60664e-47 7.67901e-47 7.74827e-47 7.81259e-47 7.86997e-47 7.9183e-47 7.95553e-47 7.9798e-47 7.98967e-47 7.98429e-47 7.96347e-47 7.92774e-47 7.87822e-47 7.81648e-47 7.74423e-47 7.66304e-47 7.57403e-47 7.47767e-47 7.3736e-47 7.26068e-47 7.13707e-47 7.0004e-47 6.84813e-47 6.67775e-47 6.48712e-47 6.27462e-47 6.03935e-47 5.78121e-47 5.50085e-47 5.19972e-47 4.87997e-47 4.54443e-47 4.19653e-47 3.84025e-47 3.48003e-47 3.1207e-47 2.76725e-47 2.4247e-47 2.09785e-47 1.79103e-47 1.50787e-47 1.25113e-47 1.02255e-47 8.22802e-48 6.51559e-48 5.07572e-48 3.88855e-48 2.92894e-48 2.16855e-48 1.57794e-48 1.12827e-48 7.92681e-49 5.47161e-49 3.71064e-49 2.47227e-49 1.6183e-49 1.04077e-49 6.5767e-50 4.0836e-50 2.49171e-50 1.4942e-50 8.80691e-51 5.10258e-51 2.90642e-51 1.62773e-51 8.96444e-52 4.85552e-52 2.58691e-52 1.35588e-52 6.99232e-53 3.54848e-53 1.77236e-53 8.71387e-54 4.21782e-54 2.01024e-54 9.4353e-55 4.36192e-55 1.98645e-55 8.91296e-56 3.94071e-56 1.71711e-56 7.37497e-57 3.12263e-57 1.3036e-57 5.36643e-58 2.17869e-58 8.72205e-59 3.43737e-59 1.31657e-59 4.43361e-60 0 
0 5.12777e-83 2.28654e-82 9.61046e-82 3.99252e-81 1.64342e-80 6.70316e-80 2.709e-79 1.08469e-78 4.30267e-78 1.69073e-77 6.58083e-77 2.53701e-76 9.68653e-76 3.66253e-75 1.37128e-74 5.08358e-74 1.86583e-73 6.77955e-73 2.43846e-72 8.68118e-72 3.05881e-71 1.06659e-70 3.68023e-70 1.25644e-69 4.24387e-69 1.41804e-68 4.68689e-68 1.53215e-67 4.95337e-67 1.58356e-66 5.00565e-66 1.56434e-65 4.83283e-65 1.47578e-64 4.45398e-64 1.3284e-63 3.91486e-63 1.13988e-62 3.27874e-62 9.31554e-62 2.61403e-61 7.24368e-61 1.98199e-60 5.35407e-60 1.42774e-59 3.75785e-59 9.7611e-59 2.5019e-58 6.32693e-58 1.57837e-57 3.88379e-57 9.42486e-57 2.25529e-56 5.32079e-56 1.23747e-55 2.83668e-55 6.40827e-55 1.42647e-54 3.12829e-54 6.75787e-54 1.43782e-53 3.01248e-53 6.21445e-53 1.26204e-52 2.5227e-52 4.9627e-52 9.60642e-52 1.82949e-51 3.42736e-51 6.31515e-51 1.1443e-50 2.03878e-50 3.57115e-50 6.14892e-50 1.0406e-49 1.73068e-49 2.82839e-49 4.54159e-49 7.16443e-49 1.11025e-48 1.69004e-48 2.52686e-48 3.71071e-48 5.35194e-48 7.58129e-48 1.05478e-47 1.4414e-47 1.93483e-47 2.55145e-47 3.30579e-47 4.20909e-47 5.26773e-47 6.4819e-47 7.84453e-47 9.34082e-47 1.09484e-46 1.26384e-46 1.43766e-46 1.61262e-46 1.78496e-46 1.95116e-46 2.1081e-46 2.25327e-46 2.38485e-46 2.50175e-46 2.60354e-46 2.69038e-46 2.76278e-46 2.82152e-46 2.86745e-46 2.90134e-46 2.92387e-46 2.93552e-46 2.93668e-46 2.92771e-46 2.90903e-46 2.88128e-46 2.84543e-46 2.80286e-46 2.75538e-46 2.70522e-46 2.65492e-46 2.60718e-46 2.56463e-46 2.52967e-46 2.50422e-46 2.48956e-46 2.48624e-46 2.49404e-46 2.51202e-46 2.5386e-46 2.57178e-46 2.60928e-46 2.64878e-46 2.68809e-46 2.72529e-46 2.75883e-46 2.78761e-46 2.81099e-46 2.82874e-46 2.84102e-46 2.84826e-46 2.85117e-46 2.85056e-46 2.84736e-46 2.84251e-46 2.83693e-46 2.83147e-46 2.82692e-46 2.82394e-46 2.82311e-46 2.82486e-46 2.82954e-46 2.83735e-46 2.8484e-46 2.86269e-46 2.88008e-46 2.90036e-46 2.92326e-46 2.94841e-46 2.97542e-46 3.00386e-46 3.03329e-46 3.06323e-46 3.09316e-46 3.12249e-46 3.15056e-46 3.17665e-46 3.19992e-46 3.21954e-46 3.23466e-46 3.24452e-46 3.24855e-46 3.24639e-46 3.23797e-46 3.22351e-46 3.20346e-46 3.17846e-46 3.14921e-46 3.11636e-46 3.08035e-46 3.0414e-46 2.99935e-46 2.95374e-46 2.90383e-46 2.84866e-46 2.78719e-46 2.7184e-46 2.64141e-46 2.55555e-46 2.46046e-46 2.35605e-46 2.24259e-46 2.12063e-46 1.99103e-46 1.85491e-46 1.71365e-46 1.56885e-46 1.42232e-46 1.276e-46 1.13195e-46 9.92215e-47 8.58775e-47 7.33417e-47 6.17648e-47 5.12615e-47 4.19051e-47 3.37254e-47 2.67101e-47 2.08095e-47 1.59433e-47 1.20091e-47 8.89124e-48 6.46936e-48 4.62539e-48 3.24925e-48 2.24252e-48 1.52053e-48 1.01287e-48 6.62858e-49 4.26196e-49 2.69243e-49 1.6713e-49 1.01947e-49 6.11149e-50 3.60094e-50 2.08559e-50 1.18752e-50 6.64821e-51 3.65998e-51 1.98162e-51 1.05535e-51 5.52918e-52 2.85025e-52 1.44586e-52 7.21864e-53 3.5476e-53 1.71645e-53 8.17731e-54 3.83652e-54 1.77288e-54 8.07048e-55 3.61964e-55 1.59971e-55 6.96769e-56 2.99141e-56 1.26609e-56 5.28341e-57 2.17415e-57 8.82331e-58 3.53095e-58 1.39104e-58 5.3261e-59 1.79309e-59 0 
0 2.02817e-82 9.04463e-82 3.80187e-81 1.57959e-80 6.50271e-80 2.6526e-79 1.07214e-78 4.29341e-78 1.7033e-77 6.69398e-77 2.60586e-76 1.00475e-75 3.83678e-75 1.45093e-74 5.43329e-74 2.01455e-73 7.39534e-73 2.6876e-72 9.66852e-72 3.44277e-71 1.2133e-70 4.23159e-70 1.4604e-69 4.98697e-69 1.68482e-68 5.63098e-68 1.86159e-67 6.08708e-67 1.96842e-66 6.29459e-66 1.99026e-65 6.22159e-65 1.92263e-64 5.87279e-64 1.77297e-63 5.28951e-63 1.55934e-62 4.54175e-62 1.30682e-61 3.71418e-61 1.04259e-60 2.89014e-60 7.91077e-60 2.13777e-59 5.7028e-59 1.50157e-58 3.90189e-58 1.0005e-57 2.53114e-57 6.317e-57 1.55503e-56 3.77521e-56 9.03764e-56 2.13313e-55 4.96323e-55 1.13824e-54 2.57252e-54 5.72894e-54 1.25694e-53 2.71654e-53 5.78242e-53 1.21207e-52 2.50153e-52 5.08246e-52 1.0164e-51 2.00039e-51 3.87394e-51 7.381e-51 1.38336e-50 2.55005e-50 4.62264e-50 8.23947e-50 1.44382e-49 2.487e-49 4.21044e-49 7.00512e-49 1.14522e-48 1.83951e-48 2.90276e-48 4.49964e-48 6.85124e-48 1.02461e-47 1.50497e-47 2.17102e-47 3.07584e-47 4.27994e-47 5.84927e-47 7.85215e-47 1.03548e-46 1.34162e-46 1.70813e-46 2.13758e-46 2.62996e-46 3.18233e-46 3.78861e-46 4.43964e-46 5.12358e-46 5.82656e-46 6.53353e-46 7.22931e-46 7.89957e-46 8.53176e-46 9.11577e-46 9.64438e-46 1.01133e-45 1.0521e-45 1.08682e-45 1.11571e-45 1.13911e-45 1.15737e-45 1.1708e-45 1.17969e-45 1.18424e-45 1.1846e-45 1.1809e-45 1.17333e-45 1.16213e-45 1.14769e-45 1.13056e-45 1.11146e-45 1.09128e-45 1.07106e-45 1.05186e-45 1.03475e-45 1.02069e-45 1.01046e-45 1.00457e-45 1.00324e-45 1.00638e-45 1.01362e-45 1.02431e-45 1.03765e-45 1.05273e-45 1.06861e-45 1.0844e-45 1.09934e-45 1.1128e-45 1.12435e-45 1.13373e-45 1.14084e-45 1.14575e-45 1.14864e-45 1.14979e-45 1.14953e-45 1.14823e-45 1.14627e-45 1.14401e-45 1.14181e-45 1.13997e-45 1.13877e-45 1.13843e-45 1.13912e-45 1.14099e-45 1.14413e-45 1.14856e-45 1.15429e-45 1.16126e-45 1.16941e-45 1.17859e-45 1.18869e-45 1.19953e-45 1.21095e-45 1.22277e-45 1.23479e-45 1.24681e-45 1.25859e-45 1.26987e-45 1.28036e-45 1.28972e-45 1.29761e-45 1.3037e-45 1.30767e-45 1.3093e-45 1.30844e-45 1.30507e-45 1.29926e-45 1.29122e-45 1.28119e-45 1.26945e-45 1.25627e-45 1.24184e-45 1.22623e-45 1.20939e-45 1.19114e-45 1.17116e-45 1.14909e-45 1.1245e-45 1.09698e-45 1.06617e-45 1.0318e-45 9.93703e-46 9.51858e-46 9.06352e-46 8.57402e-46 8.05341e-46 7.50612e-46 6.93763e-46 6.35432e-46 5.76343e-46 5.17283e-46 4.59081e-46 4.02573e-46 3.48564e-46 2.97785e-46 2.50857e-46 2.08254e-46 1.70281e-46 1.37068e-46 1.08572e-46 8.45956e-47 6.48173e-47 4.88238e-47 3.61474e-47 2.62998e-47 1.88019e-47 1.32063e-47 9.11317e-48 6.17801e-48 4.1145e-48 2.69204e-48 1.73045e-48 1.09288e-48 6.78189e-49 4.13554e-49 2.47833e-49 1.45974e-49 8.45142e-50 4.81036e-50 2.69198e-50 1.48141e-50 8.01754e-51 4.26811e-51 2.23522e-51 1.15175e-51 5.84005e-52 2.91447e-52 1.4317e-52 6.92404e-53 3.29724e-53 1.54629e-53 7.1424e-54 3.24997e-54 1.457e-54 6.4365e-55 2.80231e-55 1.2026e-55 5.08781e-56 2.12229e-56 8.72979e-57 3.54139e-57 1.41666e-57 5.57887e-58 2.13532e-58 7.18676e-59 0 