# vtk DataFile Version 3.0
Gray-Scott Simulation Output
ASCII
DATASET STRUCTURED_POINTS
DIMENSIONS 256 256 1
SPACING 1.0 1.0 1.0
ORIGIN 0 0 0
POINT_DATA 65536
SCALARS u double
LOOKUP_TABLE default
0 0 0 0 0 0 0 0 0 0 0 0 0 0 0 0 0 0 0 0 0 0 0 0 0 0 0 0 0 0 0 0 0 0 0 0 0 0 0 0 0 0 0 0 0 0 0 0 0 0 0 0 0 0 0 0 0 0 0 0 0 0 0 0 0 0 0 0 0 0 0 0 0 0 0 0 0 0 0 0 0 0 0 0 0 0 0 0 0 0 0 0 0 0 0 0 0 0 0 0 0 0 0 0 0 0 0 0 0 0 0 0 0 0 0 0 0 0 0 0 0 0 0 0 0 0 0 0 0 0 0 0 0 0 0 0 0 0 0 0 0 0 0 0 0 0 0 0 0 0 0 0 0 0 0 0 0 0 0 0 0 0 0 0 0 0 0 0 0 0 0 0 0 0 0 0 0 0 0 0 0 0 0 0 0 0 0 0 0 0 0 0 0 0 0 0 0 0 0 0 0 0 0 0 0 0 0 0 0 0 0 0 0 0 0 0 0 0 0 0 0 0 0 0 0 0 0 0 0 0 0 0 0 0 0 0 0 0 0 0 0 0 0 0 0 0 0 0 0 0 0 0 0 0 0 0 
0 6.57343e-124 5.59961e-123 4.65889e-122 3.83612e-121 3.12625e-120 2.52138e-119 2.01229e-118 1.58906e-117 1.24148e-116 9.59506e-116 7.33523e-115 5.54617e-114 4.14704e-113 3.06619e-112 2.24143e-111 1.61982e-110 1.1571e-109 8.16933e-109 5.69977e-108 3.92942e-107 2.67636e-106 1.80072e-105 1.19667e-104 7.85361e-104 5.08944e-103 3.25621e-102 2.05652e-101 1.28193e-100 7.8857e-100 4.7862e-99 2.8658e-98 1.69252e-97 9.85779e-97 5.66118e-96 3.20508e-95 1.78853e-94 9.83548e-94 5.32911e-93 2.84438e-92 1.49523e-91 7.73967e-91 3.94403e-90 1.97818e-89 9.76347e-89 4.7408e-88 2.26416e-87 1.06333e-86 4.9093e-86 2.22769e-85 9.93253e-85 4.35026e-84 1.87112e-83 7.90121e-83 3.27465e-82 1.33163e-81 5.31144e-81 2.07738e-80 7.96432e-80 2.99203e-79 1.10107e-78 3.96773e-78 1.39954e-77 4.83041e-77 1.63067e-76 5.38217e-76 1.73613e-75 5.47085e-75 1.68341e-74 5.05581e-74 1.48137e-73 4.23257e-73 1.1787e-72 3.19783e-72 8.44769e-72 2.17187e-71 5.4315e-71 1.32059e-70 3.11996e-70 7.15869e-70 1.59437e-69 3.44497e-69 7.21761e-69 1.4655e-68 2.88235e-68 5.4886e-68 1.01142e-67 1.80291e-67 3.10756e-67 5.1776e-67 8.33663e-67 1.29698e-66 1.94953e-66 2.83145e-66 3.97441e-66 5.39385e-66 7.08216e-66 9.00455e-66 1.10995e-65 1.32847e-65 1.54672e-65 1.75567e-65 1.94778e-65 2.11791e-65 2.26371e-65 2.38537e-65 2.4851e-65 2.56627e-65 2.63264e-65 2.68776e-65 2.73453e-65 2.77488e-65 2.80955e-65 2.83797e-65 2.85812e-65 2.86679e-65 2.85986e-65 2.83315e-65 2.78323e-65 2.70855e-65 2.61025e-65 2.49275e-65 2.36373e-65 2.23342e-65 2.11341e-65 2.01494e-65 1.9472e-65 1.91587e-65 1.92235e-65 1.96362e-65 2.03307e-65 2.12173e-65 2.21987e-65 2.31845e-65 2.41021e-65 2.49022e-65 2.55587e-65 2.60645e-65 2.64254e-65 2.66541e-65 2.67656e-65 2.67752e-65 2.66984e-65 2.65521e-65 2.63553e-65 2.61288e-65 2.58942e-65 2.56712e-65 2.54757e-65 2.5318e-65 2.52034e-65 2.51333e-65 2.5108e-65 2.51292e-65 2.52021e-65 2.53342e-65 2.5534e-65 2.58069e-65 2.61517e-65 2.6558e-65 2.70064e-65 2.74715e-65 2.79275e-65 2.83553e-65 2.87481e-65 2.91135e-65 2.9472e-65 2.98489e-65 3.02649e-65 3.07247e-65 3.12102e-65 3.16793e-65 3.20719e-65 3.23231e-65 3.23782e-65 3.22082e-65 3.18181e-65 3.12483e-65 3.05666e-65 2.98538e-65 2.91872e-65 2.86242e-65 2.81914e-65 2.78805e-65 2.765e-65 2.74348e-65 2.71579e-65 2.67455e-65 2.61395e-65 2.53073e-65 2.42457e-65 2.29787e-65 2.155e-65 2.00117e-65 1.84134e-65 1.6794e-65 1.51783e-65 1.35788e-65 1.20013e-65 1.0452e-65 8.94293e-66 7.49445e-66 6.1336e-66 4.88974e-66 3.78883e-66 2.8485e-66 2.0751e-66 1.46334e-66 9.9828e-67 6.58533e-67 4.19986e-67 2.58946e-67 1.54365e-67 8.89897e-68 4.96262e-68 2.67804e-68 1.39905e-68 7.07871e-69 3.47043e-69 1.64944e-69 7.60379e-70 3.40166e-70 1.47755e-70 6.23466e-71 2.55697e-71 1.01978e-71 3.9571e-72 1.4947e-72 5.49862e-73 1.971e-73 6.88749e-74 2.34735e-74 7.80615e-75 2.53414e-75 8.03431e-76 2.48871e-76 7.53509e-77 2.23082e-77 6.46063e-78 1.83098e-78 5.07987e-79 1.38019e-79 3.67363e-80 9.58234e-81 2.45025e-81 6.14404e-82 1.51126e-82 3.64752e-83 8.64092e-84 2.0098e-84 4.59088e-85 1.03017e-85 2.27133e-86 4.91371e-87 1.00361e-87 0 
0 5.59416e-123 4.76415e-122 3.96271e-121 3.262e-120 2.65766e-119 2.14288e-118 1.70976e-117 1.3498e-116 1.05428e-115 8.14607e-115 6.22589e-114 4.70618e-113 3.51805e-112 2.60047e-111 1.9005e-110 1.37309e-109 9.8061e-109 6.92156e-108 4.828e-107 3.32761e-106 2.26591e-105 1.52419e-104 1.01266e-103 6.64444e-103 4.30484e-102 2.75359e-101 1.73868e-100 1.08356e-99 6.66395e-99 4.04377e-98 2.42073e-97 1.42935e-96 8.32323e-96 4.7789e-95 2.70501e-94 1.50916e-93 8.29752e-93 4.49491e-92 2.39866e-91 1.26068e-90 6.52433e-90 3.32409e-89 1.66694e-88 8.2258e-88 3.99346e-87 1.90691e-86 8.95396e-86 4.13329e-85 1.87526e-84 8.35984e-84 3.66089e-83 1.57437e-82 6.64717e-82 2.75452e-81 1.11996e-80 4.46659e-80 1.74672e-79 6.69581e-79 2.51518e-78 9.25484e-78 3.33463e-77 1.17611e-76 4.05882e-76 1.37006e-75 4.5216e-75 1.45841e-74 4.59533e-74 1.4139e-73 4.24609e-73 1.24403e-72 3.55423e-72 9.89742e-72 2.68503e-71 7.09269e-71 1.82343e-70 4.55991e-70 1.10864e-69 2.61913e-69 6.00938e-69 1.33837e-68 2.89176e-68 6.05846e-68 1.23012e-67 2.41938e-67 4.60696e-67 8.48949e-67 1.51328e-66 2.60834e-66 4.34582e-66 6.99733e-66 1.08861e-65 1.63633e-65 2.37657e-65 3.3359e-65 4.5273e-65 5.94437e-65 7.5579e-65 9.31627e-65 1.11503e-64 1.29821e-64 1.47357e-64 1.63479e-64 1.77756e-64 1.89989e-64 2.00195e-64 2.0856e-64 2.15366e-64 2.2093e-64 2.25549e-64 2.29468e-64 2.32848e-64 2.35753e-64 2.38132e-64 2.3982e-64 2.40545e-64 2.39964e-64 2.37725e-64 2.33543e-64 2.27285e-64 2.1905e-64 2.09207e-64 1.98398e-64 1.87483e-64 1.77431e-64 1.69184e-64 1.63512e-64 1.60892e-64 1.61439e-64 1.64902e-64 1.70724e-64 1.78156e-64 1.86381e-64 1.94642e-64 2.02332e-64 2.09036e-64 2.14536e-64 2.18772e-64 2.21795e-64 2.23709e-64 2.24642e-64 2.2472e-64 2.24075e-64 2.22849e-64 2.21201e-64 2.19304e-64 2.17341e-64 2.15475e-64 2.1384e-64 2.12522e-64 2.11565e-64 2.10979e-64 2.10767e-64 2.10946e-64 2.11555e-64 2.1266e-64 2.1433e-64 2.16613e-64 2.19497e-64 2.22896e-64 2.26647e-64 2.30539e-64 2.34354e-64 2.37934e-64 2.41221e-64 2.4428e-64 2.4728e-64 2.50436e-64 2.53918e-64 2.57768e-64 2.61832e-64 2.65758e-64 2.69045e-64 2.71147e-64 2.71609e-64 2.70186e-64 2.66922e-64 2.62153e-64 2.56447e-64 2.50481e-64 2.44901e-64 2.40188e-64 2.36564e-64 2.33958e-64 2.32026e-64 2.3022e-64 2.27897e-64 2.24439e-64 2.19359e-64 2.12384e-64 2.03488e-64 1.92871e-64 1.80898e-64 1.68004e-64 1.54606e-64 1.41028e-64 1.27477e-64 1.14057e-64 1.00817e-64 8.78105e-65 7.51384e-65 6.29725e-65 5.15406e-65 4.10902e-65 3.184e-65 2.39385e-65 1.74393e-65 1.22983e-65 8.38992e-66 5.53462e-66 3.52979e-66 2.17635e-66 1.29738e-66 7.47932e-67 4.17096e-67 2.25083e-67 1.17588e-67 5.94956e-68 2.91687e-68 1.38635e-68 6.39103e-69 2.85915e-69 1.24192e-69 5.2405e-70 2.14929e-70 8.57208e-71 3.32635e-71 1.25649e-71 4.62247e-72 1.65701e-72 5.79053e-73 1.97359e-73 6.56356e-74 2.13088e-74 6.75623e-75 2.09296e-75 6.33733e-76 1.87636e-76 5.43455e-77 1.54032e-77 4.27386e-78 1.16131e-78 3.09137e-79 8.06444e-80 2.06235e-80 5.17198e-81 1.27231e-81 3.0712e-82 7.27659e-83 1.6927e-83 3.86709e-84 8.67884e-85 1.9138e-85 4.14087e-86 8.45882e-87 0 
0 4.6496e-122 3.95866e-121 3.29181e-120 2.70898e-119 2.20649e-118 1.77861e-117 1.41873e-116 1.11974e-115 8.74352e-115 6.75403e-114 5.16061e-113 3.8999e-112 2.91456e-111 2.15382e-110 1.57367e-109 1.13667e-108 8.11558e-108 5.72686e-107 3.99367e-106 2.75188e-105 1.87341e-104 1.25986e-103 8.3684e-103 5.48947e-102 3.55571e-101 2.27387e-100 1.43544e-99 8.94372e-99 5.49918e-98 3.33622e-97 1.99672e-96 1.17873e-95 6.86235e-95 3.93927e-94 2.22928e-93 1.24349e-92 6.83541e-92 3.70211e-91 1.9752e-90 1.03791e-89 5.37043e-89 2.73567e-88 1.37161e-87 6.76721e-87 3.28476e-86 1.56823e-85 7.36241e-85 3.39804e-84 1.54143e-83 6.87054e-83 3.00824e-82 1.29351e-81 5.46052e-81 2.26247e-80 9.19773e-80 3.66772e-79 1.43413e-78 5.49686e-78 2.06457e-77 7.59591e-77 2.7366e-76 9.65085e-76 3.33025e-75 1.12403e-74 3.70929e-74 1.1963e-73 3.76917e-73 1.15962e-72 3.48222e-72 1.02017e-71 2.91448e-71 8.11548e-71 2.20151e-70 5.81519e-70 1.49494e-69 3.73833e-69 9.08859e-69 2.14711e-68 4.92625e-68 1.09712e-67 2.37047e-67 4.96625e-67 1.00835e-66 1.98318e-66 3.77635e-66 6.95885e-66 1.24044e-65 2.13806e-65 3.56227e-65 5.73574e-65 8.92343e-65 1.34131e-64 1.94809e-64 2.73447e-64 3.71108e-64 4.87266e-64 6.19528e-64 7.63662e-64 9.13997e-64 1.06414e-63 1.20787e-63 1.34e-63 1.457e-63 1.55723e-63 1.64085e-63 1.70936e-63 1.76509e-63 1.81064e-63 1.84844e-63 1.88051e-63 1.90816e-63 1.93191e-63 1.95137e-63 1.96517e-63 1.97109e-63 1.96634e-63 1.94801e-63 1.91379e-63 1.86259e-63 1.79522e-63 1.71469e-63 1.62628e-63 1.53699e-63 1.45477e-63 1.38733e-63 1.34096e-63 1.31956e-63 1.32407e-63 1.35244e-63 1.40012e-63 1.46095e-63 1.52827e-63 1.59587e-63 1.65879e-63 1.71365e-63 1.75864e-63 1.7933e-63 1.81801e-63 1.83366e-63 1.84127e-63 1.8419e-63 1.83662e-63 1.82658e-63 1.8131e-63 1.7976e-63 1.78155e-63 1.76631e-63 1.75296e-63 1.7422e-63 1.73438e-63 1.7296e-63 1.72788e-63 1.72934e-63 1.73431e-63 1.74333e-63 1.75698e-63 1.77562e-63 1.79917e-63 1.82694e-63 1.85758e-63 1.88937e-63 1.92055e-63 1.9498e-63 1.97666e-63 2.00166e-63 2.02619e-63 2.05199e-63 2.08045e-63 2.11192e-63 2.14514e-63 2.17723e-63 2.2041e-63 2.22128e-63 2.22506e-63 2.21343e-63 2.18675e-63 2.14778e-63 2.10115e-63 2.05239e-63 2.00678e-63 1.96825e-63 1.93861e-63 1.91729e-63 1.90147e-63 1.88667e-63 1.86764e-63 1.83932e-63 1.79774e-63 1.74066e-63 1.66786e-63 1.58098e-63 1.483e-63 1.37748e-63 1.26779e-63 1.15661e-63 1.04562e-63 9.35664e-64 8.2715e-64 7.20508e-64 6.16582e-64 5.16785e-64 4.22993e-64 3.37242e-64 2.61332e-64 1.96484e-64 1.43143e-64 1.00947e-64 6.88671e-65 4.54303e-65 2.89741e-65 1.78645e-65 1.06496e-65 6.13941e-66 3.42373e-66 1.8476e-66 9.65218e-67 4.88369e-67 2.39431e-67 1.13799e-67 5.24611e-68 2.34696e-68 1.01945e-68 4.3018e-69 1.76433e-69 7.03686e-70 2.73068e-70 1.03151e-70 3.79491e-71 1.3604e-71 4.75421e-72 1.62045e-72 5.3894e-73 1.74978e-73 5.54823e-74 1.71885e-74 5.20493e-75 1.5412e-75 4.46416e-76 1.26539e-76 3.51135e-77 9.54211e-78 2.54033e-78 6.62764e-79 1.6951e-79 4.25149e-80 1.046e-80 2.52522e-81 5.98378e-82 1.39215e-82 3.18091e-83 7.1399e-84 1.57468e-84 3.40763e-85 6.96199e-86 0 
0 3.82447e-121 3.25527e-120 2.70615e-119 2.22641e-118 1.81293e-117 1.46097e-116 1.16505e-115 9.19271e-115 7.17624e-114 5.54189e-113 4.23332e-112 3.1983e-111 2.3896e-110 1.76542e-109 1.28956e-108 9.31218e-108 6.64702e-107 4.68938e-106 3.26935e-105 2.25222e-104 1.53288e-103 1.03061e-102 6.84398e-102 4.48842e-101 2.90661e-100 1.85834e-99 1.17285e-98 7.30596e-98 4.49116e-97 2.72407e-96 1.62999e-95 9.6203e-95 5.59955e-94 3.21369e-93 1.81829e-92 1.01403e-91 5.57294e-91 3.01775e-90 1.60975e-89 8.45717e-89 4.37514e-88 2.22826e-87 1.117e-86 5.51004e-86 2.67407e-85 1.27645e-84 5.9916e-84 2.76491e-83 1.25403e-82 5.58865e-82 2.44661e-81 1.05186e-80 4.43978e-80 1.83929e-79 7.47638e-79 2.98093e-78 1.16544e-77 4.46648e-77 1.67738e-76 6.17071e-76 2.22292e-75 7.83853e-75 2.70462e-74 9.12782e-74 3.01194e-73 9.71322e-73 3.0601e-72 9.41405e-72 2.82678e-71 8.28102e-71 2.36565e-70 6.58693e-70 1.78678e-69 4.71953e-69 1.21323e-68 3.03379e-68 7.37556e-68 1.74238e-67 3.9976e-67 8.9029e-67 1.92357e-66 4.02995e-66 8.18241e-66 1.60928e-65 3.06438e-65 5.64689e-65 1.00658e-64 1.73498e-64 2.89071e-64 4.65446e-64 7.24127e-64 1.08846e-63 1.58087e-63 2.21903e-63 3.01156e-63 3.95419e-63 5.02751e-63 6.19715e-63 7.41709e-63 8.63543e-63 9.8017e-63 1.08738e-62 1.18229e-62 1.2636e-62 1.33142e-62 1.38697e-62 1.43214e-62 1.46905e-62 1.49968e-62 1.52564e-62 1.54803e-62 1.56727e-62 1.58302e-62 1.59419e-62 1.59898e-62 1.59512e-62 1.58027e-62 1.55255e-62 1.51109e-62 1.45652e-62 1.39131e-62 1.31971e-62 1.24741e-62 1.18084e-62 1.12624e-62 1.08871e-62 1.07141e-62 1.0751e-62 1.0981e-62 1.13674e-62 1.18604e-62 1.24058e-62 1.29535e-62 1.34632e-62 1.39075e-62 1.42719e-62 1.45525e-62 1.47526e-62 1.48792e-62 1.49407e-62 1.49457e-62 1.49028e-62 1.48215e-62 1.47123e-62 1.45869e-62 1.44571e-62 1.43338e-62 1.42259e-62 1.41389e-62 1.40758e-62 1.40372e-62 1.40233e-62 1.40351e-62 1.40753e-62 1.41482e-62 1.42585e-62 1.44092e-62 1.45997e-62 1.48242e-62 1.5072e-62 1.53291e-62 1.55812e-62 1.58179e-62 1.60351e-62 1.62374e-62 1.64359e-62 1.66446e-62 1.6875e-62 1.71296e-62 1.73985e-62 1.76582e-62 1.78755e-62 1.80146e-62 1.80451e-62 1.79511e-62 1.77353e-62 1.742e-62 1.70427e-62 1.66482e-62 1.62792e-62 1.59673e-62 1.57274e-62 1.55547e-62 1.54265e-62 1.53064e-62 1.51521e-62 1.49226e-62 1.45856e-62 1.41232e-62 1.35335e-62 1.28297e-62 1.2036e-62 1.1181e-62 1.02921e-62 9.39091e-63 8.49092e-63 7.59905e-63 6.71855e-63 5.85296e-63 5.00917e-63 4.19871e-63 3.43688e-63 2.74026e-63 2.12353e-63 1.59664e-63 1.16321e-63 8.20328e-64 5.59642e-64 3.69187e-64 2.35457e-64 1.45175e-64 8.65433e-65 4.98914e-65 2.78225e-65 1.50142e-65 7.84363e-66 3.9686e-66 1.94566e-66 9.24744e-67 4.26305e-67 1.90717e-67 8.28423e-68 3.49572e-68 1.43374e-68 5.71839e-69 2.21908e-69 8.38269e-70 3.08406e-70 1.10561e-70 3.8639e-71 1.31705e-71 4.3805e-72 1.42229e-72 4.51006e-73 1.39731e-73 4.23152e-74 1.25305e-74 3.62981e-75 1.02897e-75 2.85554e-76 7.76067e-77 2.06627e-77 5.39137e-78 1.37906e-78 3.4592e-79 8.5117e-80 2.05512e-80 4.87044e-81 1.13327e-81 2.58976e-82 5.81382e-83 1.2824e-83 2.77555e-84 5.67141e-85 0 
0 3.11344e-120 2.64934e-119 2.20183e-118 1.811e-117 1.47427e-116 1.18773e-115 9.469e-115 7.46943e-114 5.82941e-113 4.50061e-112 3.43701e-111 2.596e-110 1.93909e-109 1.43222e-108 1.0459e-107 7.55078e-107 5.38838e-106 3.80048e-105 2.64897e-104 1.8244e-103 1.2414e-102 8.34435e-102 5.53993e-101 3.63234e-100 2.35168e-99 1.5032e-98 9.48496e-98 5.90706e-97 3.63041e-96 2.2015e-95 1.31702e-94 7.77144e-94 4.52245e-93 2.59498e-92 1.46792e-91 8.18469e-91 4.49728e-90 2.4348e-89 1.29854e-88 6.82087e-88 3.52797e-87 1.79647e-86 9.00388e-86 4.44075e-85 2.15477e-84 1.02839e-83 4.82644e-83 2.22688e-82 1.00985e-81 4.49977e-81 1.96963e-80 8.46673e-80 3.57323e-79 1.4801e-78 6.0156e-78 2.3982e-77 9.37505e-77 3.59253e-76 1.34902e-75 4.96226e-75 1.78741e-74 6.30227e-74 2.17436e-73 7.33765e-73 2.42104e-72 7.8071e-72 2.45943e-71 7.56569e-71 2.27164e-70 6.65442e-70 1.90089e-69 5.29265e-69 1.43564e-68 3.79193e-68 9.74756e-68 2.43741e-67 5.92557e-67 1.39982e-66 3.21163e-66 7.15246e-66 1.54536e-65 3.2376e-65 6.57364e-65 1.29288e-64 2.46191e-64 4.53673e-64 8.08698e-64 1.39392e-63 2.32248e-63 3.73957e-63 5.81796e-63 8.74528e-63 1.27017e-62 1.78291e-62 2.41969e-62 3.17708e-62 4.03946e-62 4.97923e-62 5.95939e-62 6.93823e-62 7.87519e-62 8.7364e-62 9.49881e-62 1.01518e-61 1.06963e-61 1.11423e-61 1.15048e-61 1.18009e-61 1.20465e-61 1.22548e-61 1.24342e-61 1.25884e-61 1.27147e-61 1.28042e-61 1.28425e-61 1.28115e-61 1.26924e-61 1.24701e-61 1.21376e-61 1.17001e-61 1.11773e-61 1.06032e-61 1.00236e-61 9.4899e-62 9.05226e-62 8.75154e-62 8.61307e-62 8.6429e-62 8.82765e-62 9.13774e-62 9.53322e-62 9.97074e-62 1.041e-61 1.08188e-61 1.11751e-61 1.14673e-61 1.16922e-61 1.18526e-61 1.1954e-61 1.20032e-61 1.20071e-61 1.19727e-61 1.19075e-61 1.18199e-61 1.17194e-61 1.16154e-61 1.15168e-61 1.14304e-61 1.13608e-61 1.13103e-61 1.12795e-61 1.12684e-61 1.12778e-61 1.131e-61 1.13683e-61 1.14566e-61 1.15772e-61 1.17297e-61 1.19094e-61 1.21078e-61 1.23137e-61 1.25156e-61 1.2705e-61 1.28791e-61 1.30411e-61 1.32001e-61 1.33673e-61 1.35519e-61 1.37559e-61 1.39713e-61 1.41793e-61 1.43534e-61 1.44648e-61 1.44893e-61 1.4414e-61 1.42412e-61 1.39886e-61 1.36864e-61 1.33704e-61 1.30748e-61 1.28249e-61 1.26327e-61 1.24942e-61 1.23913e-61 1.22949e-61 1.2171e-61 1.19868e-61 1.17165e-61 1.13456e-61 1.08726e-61 1.03082e-61 9.67159e-62 8.98576e-62 8.27264e-62 7.54938e-62 6.82688e-62 6.11064e-62 5.40327e-62 4.70764e-62 4.02933e-62 3.37765e-62 2.76497e-62 2.20464e-62 1.70852e-62 1.28463e-62 9.35919e-63 6.60046e-63 4.50298e-63 2.97056e-63 1.89454e-63 1.1681e-63 6.96337e-64 4.01428e-64 2.23859e-64 1.20802e-64 6.31079e-65 3.193e-65 1.56539e-65 7.44001e-66 3.4298e-66 1.53438e-66 6.66492e-67 2.81241e-67 1.15348e-67 4.60064e-68 1.78534e-68 6.7443e-69 2.48132e-69 8.89552e-70 3.10891e-70 1.05973e-70 3.52481e-71 1.1445e-71 3.62938e-72 1.12451e-72 3.4056e-73 1.00855e-73 2.92172e-74 8.28304e-75 2.29885e-75 6.24825e-76 1.66374e-76 4.34149e-77 1.11062e-77 2.78615e-78 6.85636e-79 1.65564e-79 3.92418e-80 9.1321e-81 2.08714e-81 4.68611e-82 1.0338e-82 2.23781e-83 4.57324e-84 0 
0 2.5083e-119 2.13384e-118 1.77292e-117 1.45782e-116 1.18644e-115 9.55588e-115 7.61622e-114 6.0063e-113 4.68629e-112 3.61711e-111 2.76158e-110 2.08531e-109 1.55723e-108 1.14988e-107 8.39507e-107 6.05919e-106 4.32288e-105 3.04821e-104 2.12411e-103 1.46257e-102 9.94951e-102 6.68619e-101 4.43801e-100 2.90917e-99 1.88304e-98 1.20337e-97 7.59136e-97 4.7267e-96 2.90433e-95 1.76082e-94 1.05316e-93 6.21316e-93 3.61488e-92 2.07379e-91 1.17286e-90 6.5382e-90 3.59187e-89 1.94424e-88 1.03672e-87 5.44457e-87 2.81559e-86 1.43347e-85 7.18325e-85 3.5422e-84 1.71848e-83 8.20036e-83 3.84797e-82 1.77515e-81 8.04876e-81 3.58592e-80 1.5694e-79 6.74537e-79 2.84639e-78 1.17888e-77 4.79076e-77 1.90968e-76 7.46449e-76 2.8601e-75 1.07388e-74 3.94979e-74 1.42259e-73 5.0155e-73 1.73027e-72 5.83858e-72 1.9263e-71 6.21129e-71 1.9566e-70 6.01856e-70 1.80702e-69 5.29316e-69 1.51198e-68 4.20967e-68 1.14185e-67 3.01588e-67 7.75249e-67 1.93851e-66 4.71266e-66 1.11329e-65 2.55422e-65 5.68838e-65 1.22904e-64 2.57491e-64 5.22817e-64 1.02827e-63 1.95806e-63 3.60831e-63 6.43212e-63 1.10869e-62 1.84728e-62 2.97447e-62 4.62769e-62 6.95622e-62 1.01033e-61 1.4182e-61 1.92474e-61 2.52722e-61 3.21321e-61 3.96075e-61 4.74039e-61 5.51896e-61 6.26418e-61 6.9491e-61 7.55537e-61 8.07454e-61 8.50739e-61 8.86179e-61 9.14981e-61 9.38497e-61 9.58e-61 9.74527e-61 9.88771e-61 1.001e-60 1.01102e-60 1.01812e-60 1.02116e-60 1.01869e-60 1.00924e-60 9.91588e-61 9.65194e-61 9.30466e-61 8.88965e-61 8.43401e-61 7.97398e-61 7.55046e-61 7.2032e-61 6.96467e-61 6.85494e-61 6.87883e-61 7.0257e-61 7.27205e-61 7.58616e-61 7.9336e-61 8.28241e-61 8.60695e-61 8.88978e-61 9.1217e-61 9.30022e-61 9.42745e-61 9.50789e-61 9.54688e-61 9.5499e-61 9.52252e-61 9.47073e-61 9.40127e-61 9.32153e-61 9.23909e-61 9.16089e-61 9.09244e-61 9.03735e-61 8.99737e-61 8.97295e-61 8.96417e-61 8.97166e-61 8.99715e-61 9.04337e-61 9.11329e-61 9.20885e-61 9.32966e-61 9.4721e-61 9.62937e-61 9.79253e-61 9.95257e-61 1.01028e-60 1.02407e-60 1.03692e-60 1.04953e-60 1.06279e-60 1.07743e-60 1.09361e-60 1.11069e-60 1.12719e-60 1.141e-60 1.14984e-60 1.15178e-60 1.14581e-60 1.13211e-60 1.11208e-60 1.08812e-60 1.06306e-60 1.03962e-60 1.0198e-60 1.00454e-60 9.9355e-61 9.85372e-61 9.7771e-61 9.67864e-61 9.53231e-61 9.31767e-61 9.02319e-61 8.6477e-61 8.19959e-61 7.69411e-61 7.14949e-61 6.58308e-61 6.00847e-61 5.43427e-61 4.86483e-61 4.30223e-61 3.74877e-61 3.20892e-61 2.69014e-61 2.2023e-61 1.75608e-61 1.36095e-61 1.02332e-61 7.45554e-62 5.25799e-62 3.58713e-62 2.36638e-62 1.5092e-62 9.30513e-63 5.54696e-63 3.19769e-63 1.78318e-63 9.6225e-64 5.02679e-64 2.5433e-64 1.24685e-64 5.92593e-65 2.73177e-65 1.22209e-65 5.30834e-66 2.23995e-66 9.18691e-67 3.66417e-67 1.42193e-67 5.37152e-68 1.97628e-68 7.08503e-69 2.47621e-69 8.44085e-70 2.80761e-70 9.11664e-71 2.89113e-71 8.95818e-72 2.71313e-72 8.0352e-73 2.32792e-73 6.60006e-74 1.8319e-74 4.97946e-75 1.32601e-75 3.4605e-76 8.85333e-77 2.22121e-77 5.46669e-78 1.32021e-78 3.12952e-79 7.28371e-80 1.6649e-80 3.73857e-81 8.24874e-82 1.78581e-82 3.65002e-83 0 
0 1.99962e-118 1.70065e-117 1.41261e-116 1.16124e-115 9.44809e-115 7.60771e-114 6.06187e-113 4.77925e-112 3.72793e-111 2.87665e-110 2.19569e-109 1.65757e-108 1.23749e-107 9.1355e-107 6.66798e-106 4.81146e-105 3.43184e-104 2.41932e-103 1.68547e-102 1.16025e-101 7.89107e-101 5.30164e-100 3.51818e-99 2.30568e-98 1.49207e-97 9.53301e-97 6.01249e-96 3.7428e-95 2.29927e-94 1.39369e-93 8.33399e-93 4.91564e-92 2.85938e-91 1.64004e-90 9.2736e-90 5.16863e-89 2.83893e-88 1.53639e-87 8.19088e-87 4.30085e-86 2.22374e-85 1.13195e-84 5.67133e-84 2.79618e-83 1.35633e-82 6.4712e-82 3.03611e-81 1.40041e-80 6.34872e-80 2.82811e-79 1.23757e-78 5.31846e-78 2.24398e-77 9.29272e-77 3.77595e-76 1.50499e-75 5.88204e-75 2.25354e-74 8.46054e-74 3.11155e-73 1.12059e-72 3.95045e-72 1.36274e-71 4.59809e-71 1.51693e-70 4.89103e-70 1.54063e-69 4.73881e-69 1.42273e-68 4.16734e-68 1.19035e-67 3.31411e-67 8.98919e-67 2.37421e-66 6.10297e-66 1.52604e-65 3.70991e-65 8.76405e-65 2.01075e-64 4.4781e-64 9.67558e-64 2.02712e-63 4.11599e-63 8.09545e-63 1.54159e-62 2.84089e-62 5.06424e-62 8.72932e-62 1.45449e-61 2.34205e-61 3.64384e-61 5.47742e-61 7.95562e-61 1.11674e-60 1.51562e-60 1.99005e-60 2.53024e-60 3.11888e-60 3.7328e-60 4.34584e-60 4.93258e-60 5.47181e-60 5.94905e-60 6.35766e-60 6.69827e-60 6.97706e-60 7.20356e-60 7.38843e-60 7.54171e-60 7.67155e-60 7.78344e-60 7.87952e-60 7.95818e-60 8.01392e-60 8.03775e-60 8.01834e-60 7.94401e-60 7.80532e-60 7.59793e-60 7.32505e-60 6.99898e-60 6.64099e-60 6.27958e-60 5.94688e-60 5.67412e-60 5.48682e-60 5.40076e-60 5.4197e-60 5.53527e-60 5.72901e-60 5.97596e-60 6.24908e-60 6.52325e-60 6.7783e-60 7.00056e-60 7.18278e-60 7.32302e-60 7.42295e-60 7.48609e-60 7.51666e-60 7.51898e-60 7.49742e-60 7.45672e-60 7.40215e-60 7.33955e-60 7.27484e-60 7.21348e-60 7.1598e-60 7.11661e-60 7.08528e-60 7.06615e-60 7.05928e-60 7.06516e-60 7.08514e-60 7.12138e-60 7.17621e-60 7.25116e-60 7.34592e-60 7.45766e-60 7.58104e-60 7.70906e-60 7.83463e-60 7.9525e-60 8.06076e-60 8.16159e-60 8.26056e-60 8.3647e-60 8.47963e-60 8.60665e-60 8.74076e-60 8.8703e-60 8.97872e-60 9.04807e-60 9.06334e-60 9.01648e-60 8.90892e-60 8.75176e-60 8.56368e-60 8.36698e-60 8.18292e-60 8.02731e-60 7.9075e-60 7.82114e-60 7.75683e-60 7.69654e-60 7.61909e-60 7.50403e-60 7.3353e-60 7.10386e-60 6.80877e-60 6.45661e-60 6.05933e-60 5.63123e-60 5.18591e-60 4.734e-60 4.28227e-60 3.83411e-60 3.39117e-60 2.95525e-60 2.52992e-60 2.12108e-60 1.73654e-60 1.38476e-60 1.07322e-60 8.06991e-61 5.87953e-61 4.14655e-61 2.82888e-61 1.86617e-61 1.19017e-61 7.33801e-62 4.37425e-62 2.5216e-62 1.40613e-62 7.58766e-63 3.96369e-63 2.00537e-63 9.83108e-64 4.67232e-64 2.15383e-64 9.63519e-65 4.18512e-65 1.76596e-65 7.24277e-66 2.88872e-66 1.121e-66 4.23471e-67 1.55803e-67 5.58565e-68 1.9522e-68 6.65473e-69 2.21356e-69 7.18788e-70 2.27954e-70 7.06345e-71 2.13938e-71 6.33629e-72 1.83582e-72 5.2052e-73 1.44484e-73 3.92764e-74 1.04599e-74 2.72998e-75 6.98498e-76 1.75263e-76 4.31388e-77 1.04192e-77 2.47011e-78 5.74964e-79 1.31441e-79 2.95189e-80 6.51388e-81 1.41041e-81 2.88311e-82 0 
0 1.57725e-117 1.34107e-116 1.11363e-115 9.15215e-115 7.44442e-114 5.99273e-113 4.77379e-112 3.76272e-111 2.93425e-110 2.26362e-109 1.72733e-108 1.30366e-107 9.73026e-107 7.18135e-106 5.24034e-105 3.78037e-104 2.69574e-103 1.89993e-102 1.32331e-101 9.10732e-101 6.19256e-100 4.15952e-99 2.75963e-98 1.80814e-97 1.16983e-96 7.47253e-96 4.7119e-95 2.93254e-94 1.80112e-93 1.09151e-92 6.52564e-92 3.84822e-91 2.23802e-90 1.28339e-89 7.25551e-89 4.04307e-88 2.22028e-87 1.20136e-86 6.4036e-86 3.36179e-85 1.7379e-84 8.84487e-84 4.43077e-83 2.18418e-82 1.0593e-81 5.05327e-81 2.3705e-80 1.09324e-79 4.95547e-79 2.20717e-78 9.65724e-78 4.14967e-77 1.75063e-76 7.24883e-76 2.94512e-75 1.17372e-74 4.58686e-74 1.75716e-73 6.59638e-73 2.42576e-72 8.73542e-72 3.0793e-71 1.06216e-70 3.58367e-70 1.1822e-69 3.81158e-69 1.20056e-68 3.69264e-68 1.1086e-67 3.24714e-67 9.27488e-67 2.58221e-66 7.0039e-66 1.84984e-65 4.75507e-65 1.189e-64 2.89056e-64 6.82856e-64 1.56671e-63 3.48924e-63 7.53917e-63 1.57956e-62 3.20731e-62 6.3084e-62 1.20132e-61 2.21389e-61 3.94664e-61 6.80309e-61 1.13357e-60 1.82534e-60 2.84e-60 4.26917e-60 6.20083e-60 8.70431e-60 1.18135e-59 1.55115e-59 1.97221e-59 2.43104e-59 2.90954e-59 3.38735e-59 3.84463e-59 4.26483e-59 4.63669e-59 4.95501e-59 5.22029e-59 5.43737e-59 5.61367e-59 5.75752e-59 5.87675e-59 5.97772e-59 6.06471e-59 6.13939e-59 6.20053e-59 6.24384e-59 6.26234e-59 6.24722e-59 6.18939e-59 6.08152e-59 5.92022e-59 5.708e-59 5.45441e-59 5.17602e-59 4.89498e-59 4.63629e-59 4.42424e-59 4.27867e-59 4.21186e-59 4.22672e-59 4.31674e-59 4.46754e-59 4.65973e-59 4.87223e-59 5.08552e-59 5.28393e-59 5.4568e-59 5.59851e-59 5.70756e-59 5.78523e-59 5.83429e-59 5.85802e-59 5.85978e-59 5.84298e-59 5.81131e-59 5.76889e-59 5.72023e-59 5.66997e-59 5.62232e-59 5.58065e-59 5.54714e-59 5.52283e-59 5.508e-59 5.50267e-59 5.50724e-59 5.52275e-59 5.55087e-59 5.59343e-59 5.65161e-59 5.72518e-59 5.81194e-59 5.90774e-59 6.00716e-59 6.10468e-59 6.19622e-59 6.28032e-59 6.35865e-59 6.43554e-59 6.51646e-59 6.60576e-59 6.70447e-59 6.80868e-59 6.90934e-59 6.99359e-59 7.04749e-59 7.05936e-59 7.02297e-59 6.93941e-59 6.81731e-59 6.67118e-59 6.51836e-59 6.37534e-59 6.25441e-59 6.16128e-59 6.09411e-59 6.04406e-59 5.99712e-59 5.93682e-59 5.84727e-59 5.71599e-59 5.53595e-59 5.30643e-59 5.0325e-59 4.72345e-59 4.39037e-59 4.04382e-59 3.69205e-59 3.34029e-59 2.99118e-59 2.64598e-59 2.30613e-59 1.97442e-59 1.65549e-59 1.35544e-59 1.08092e-59 8.37761e-60 6.29959e-60 4.58978e-60 3.23697e-60 2.20834e-60 1.4568e-60 9.29077e-61 5.72813e-61 3.41451e-61 1.9683e-61 1.09756e-61 5.92237e-62 3.09367e-62 1.56515e-62 7.67268e-63 3.6464e-63 1.68085e-63 7.5191e-64 3.26589e-64 1.37805e-64 5.6517e-65 2.25409e-65 8.74714e-66 3.3043e-66 1.21571e-66 4.35839e-67 1.52328e-67 5.19265e-68 1.72726e-68 5.60886e-69 1.77882e-69 5.51209e-70 1.66956e-70 4.94503e-71 1.4328e-71 4.06271e-72 1.12778e-72 3.06596e-73 8.16572e-74 2.13137e-74 5.45382e-75 1.36856e-75 3.36886e-76 8.13753e-77 1.92939e-77 4.49151e-78 1.02691e-78 2.30651e-79 5.09037e-80 1.10233e-80 2.25362e-81 0 
0 1.23082e-116 1.04624e-115 8.68568e-115 7.13622e-114 5.8031e-113 4.67024e-112 3.71932e-111 2.93082e-110 2.28492e-109 1.76224e-108 1.34439e-107 1.01439e-106 7.56931e-106 5.58508e-105 4.07451e-104 2.93862e-103 2.09499e-102 1.47617e-101 1.02791e-100 7.07266e-100 4.80796e-99 3.22874e-98 2.14161e-97 1.40289e-96 9.07443e-96 5.79517e-95 3.65342e-94 2.27329e-93 1.39592e-92 8.45773e-92 5.05546e-91 2.98064e-90 1.73311e-89 9.93657e-89 5.61644e-88 3.12912e-87 1.71806e-86 9.29448e-86 4.95333e-85 2.59997e-84 1.34384e-83 6.83821e-83 3.42499e-82 1.68811e-81 8.18587e-81 3.90438e-80 1.83129e-79 8.44443e-79 3.8272e-78 1.70442e-77 7.45657e-77 3.20367e-76 1.35138e-75 5.59504e-75 2.27296e-74 9.05756e-74 3.53933e-73 1.35574e-72 5.08905e-72 1.87131e-71 6.7383e-71 2.37515e-70 8.19222e-70 2.76386e-69 9.11716e-69 2.93936e-68 9.25796e-68 2.84745e-67 8.54838e-67 2.5038e-66 7.15158e-66 1.99105e-65 5.40042e-65 1.42634e-64 3.66647e-64 9.16807e-64 2.22887e-63 5.26549e-63 1.20812e-62 2.69068e-62 5.81389e-62 1.21812e-61 2.4735e-61 4.86524e-61 9.26527e-61 1.70754e-60 3.04409e-60 5.24748e-60 8.74394e-60 1.40804e-59 2.19079e-59 3.29335e-59 4.78359e-59 6.71501e-59 9.11372e-59 1.19668e-58 1.52152e-58 1.8755e-58 2.24465e-58 2.61324e-58 2.96596e-58 3.29006e-58 3.57683e-58 3.82227e-58 4.02676e-58 4.19404e-58 4.32986e-58 4.44063e-58 4.53241e-58 4.61011e-58 4.67704e-58 4.7345e-58 4.78152e-58 4.81483e-58 4.82904e-58 4.81738e-58 4.77286e-58 4.68982e-58 4.56565e-58 4.40231e-58 4.20713e-58 3.99287e-58 3.77657e-58 3.5775e-58 3.41434e-58 3.30237e-58 3.25104e-58 3.26258e-58 3.33198e-58 3.44816e-58 3.59617e-58 3.75982e-58 3.92405e-58 4.07679e-58 4.20987e-58 4.31894e-58 4.40285e-58 4.46261e-58 4.50033e-58 4.51856e-58 4.51988e-58 4.50693e-58 4.48254e-58 4.4499e-58 4.41248e-58 4.37383e-58 4.33721e-58 4.3052e-58 4.27946e-58 4.2608e-58 4.24942e-58 4.24533e-58 4.24884e-58 4.26075e-58 4.28235e-58 4.31504e-58 4.35974e-58 4.41627e-58 4.48294e-58 4.55657e-58 4.63297e-58 4.70793e-58 4.77829e-58 4.84294e-58 4.90316e-58 4.96228e-58 5.0245e-58 5.09318e-58 5.1691e-58 5.24924e-58 5.32666e-58 5.39146e-58 5.43291e-58 5.44205e-58 5.41407e-58 5.34983e-58 5.25595e-58 5.14359e-58 5.02607e-58 4.91609e-58 4.82308e-58 4.75143e-58 4.69973e-58 4.66118e-58 4.62501e-58 4.57854e-58 4.50957e-58 4.40849e-58 4.26989e-58 4.09319e-58 3.88232e-58 3.64438e-58 3.38791e-58 3.121e-58 2.85e-58 2.5789e-58 2.30973e-58 2.04347e-58 1.78123e-58 1.52518e-58 1.27892e-58 1.04719e-58 8.35141e-59 6.47296e-59 4.86749e-59 3.54642e-59 2.50114e-59 1.70633e-59 1.12562e-59 7.17853e-60 4.42575e-60 2.63809e-60 1.52068e-60 8.47931e-61 4.57523e-61 2.38987e-61 1.20903e-61 5.9267e-62 2.81652e-62 1.29826e-62 5.80739e-63 2.52233e-63 1.06426e-63 4.36467e-64 1.74074e-64 6.75488e-65 2.55167e-65 9.38788e-66 3.36559e-66 1.17628e-66 4.0098e-67 1.33381e-67 4.33129e-68 1.37367e-68 4.25673e-69 1.28937e-69 3.81907e-70 1.1066e-70 3.13794e-71 8.71115e-72 2.36834e-72 6.30812e-73 1.64662e-73 4.21377e-74 1.05747e-74 2.60332e-75 6.28895e-76 1.49125e-76 3.4719e-77 7.9388e-78 1.78332e-78 3.93618e-79 8.52495e-80 1.74306e-80 0 