# vtk DataFile Version 3.0
Gray-Scott Simulation Output
ASCII
DATASET STRUCTURED_POINTS
DIMENSIONS 256 256 1
SPACING 1.0 1.0 1.0
ORIGIN 0 0 0
POINT_DATA 65536
SCALARS u double
LOOKUP_TABLE default
0 0 0 0 0 0 0 0 0 0 0 0 0 0 0 0 0 0 0 0 0 0 0 0 0 0 0 0 0 0 0 0 0 0 0 0 0 0 0 0 0 0 0 0 0 0 0 0 0 0 0 0 0 0 0 0 0 0 0 0 0 0 0 0 0 0 0 0 0 0 0 0 0 0 0 0 0 0 0 0 0 0 0 0 0 0 0 0 0 0 0 0 0 0 0 0 0 0 0 0 0 0 0 0 0 0 0 0 0 0 0 0 0 0 0 0 0 0 0 0 0 0 0 0 0 0 0 0 0 0 0 0 0 0 0 0 0 0 0 0 0 0 0 0 0 0 0 0 0 0 0 0 0 0 0 0 0 0 0 0 0 0 0 0 0 0 0 0 0 0 0 0 0 0 0 0 0 0 0 0 0 0 0 0 0 0 0 0 0 0 0 0 0 0 0 0 0 0 0 0 0 0 0 0 0 0 0 0 0 0 0 0 0 0 0 0 0 0 0 0 0 0 0 0 0 0 0 0 0 0 0 0 0 0 0 0 0 0 0 0 0 0 0 0 0 0 0 0 0 0 0 0 0 0 0 0 
0 7.86487e-97 4.21394e-96 2.16086e-95 1.09624e-94 5.50812e-94 2.74098e-93 1.35075e-92 6.59139e-92 3.18473e-91 1.52344e-90 7.21435e-90 3.3818e-89 1.56906e-88 7.20491e-88 3.27399e-87 1.47212e-86 6.54912e-86 2.8824e-85 1.25491e-84 5.40399e-84 2.30152e-83 9.69314e-83 4.03663e-82 1.66199e-81 6.76469e-81 2.7216e-80 1.0822e-79 4.25253e-79 1.65116e-78 6.33409e-78 2.40035e-77 8.98472e-77 3.32139e-76 1.21245e-75 4.36993e-75 1.55487e-74 5.46092e-74 1.89288e-73 6.47449e-73 2.18498e-72 7.27423e-72 2.38866e-71 7.73543e-71 2.47006e-70 7.77595e-70 2.41297e-69 7.37953e-69 2.22388e-68 6.60276e-68 1.93105e-67 5.56209e-67 1.57754e-66 4.40494e-66 1.2107e-65 3.2748e-65 8.71571e-65 2.28194e-64 5.8763e-64 1.48803e-63 3.70462e-63 9.06578e-63 2.18026e-62 5.1518e-62 1.19583e-61 2.72609e-61 6.10214e-61 1.34091e-60 2.89201e-60 6.12052e-60 1.27078e-59 2.58792e-59 5.16822e-59 1.01192e-58 1.94212e-58 3.65294e-58 6.73227e-58 1.21548e-57 2.14943e-57 3.7223e-57 6.31163e-57 1.04773e-56 1.70247e-56 2.70755e-56 4.21409e-56 6.41845e-56 9.56613e-56 1.39514e-55 1.99107e-55 2.78079e-55 3.80116e-55 5.08627e-55 6.66371e-55 8.55052e-55 1.07495e-54 1.32462e-54 1.6008e-54 1.89845e-54 2.211e-54 2.53087e-54 2.85001e-54 3.1606e-54 3.45561e-54 3.72937e-54 3.97784e-54 4.19867e-54 4.39116e-54 4.55588e-54 4.69427e-54 4.80821e-54 4.89951e-54 4.96962e-54 5.01935e-54 5.04887e-54 5.05777e-54 5.04535e-54 5.01104e-54 4.95479e-54 4.87755e-54 4.78163e-54 4.67087e-54 4.55066e-54 4.42764e-54 4.30926e-54 4.20308e-54 4.11603e-54 4.05371e-54 4.01982e-54 4.01575e-54 4.04054e-54 4.09107e-54 4.16246e-54 4.24874e-54 4.34343e-54 4.44021e-54 4.53346e-54 4.6186e-54 4.6923e-54 4.7525e-54 4.79836e-54 4.83004e-54 4.84856e-54 4.85552e-54 4.85293e-54 4.84301e-54 4.82804e-54 4.81025e-54 4.79173e-54 4.77432e-54 4.75965e-54 4.74908e-54 4.74371e-54 4.74444e-54 4.75192e-54 4.76658e-54 4.78864e-54 4.81802e-54 4.85439e-54 4.89715e-54 4.94547e-54 4.99836e-54 5.05477e-54 5.11371e-54 5.17428e-54 5.23572e-54 5.29734e-54 5.35839e-54 5.41794e-54 5.47467e-54 5.52686e-54 5.57233e-54 5.60866e-54 5.63342e-54 5.64454e-54 5.64066e-54 5.62139e-54 5.58748e-54 5.54068e-54 5.48352e-54 5.41886e-54 5.34938e-54 5.27705e-54 5.2028e-54 5.12626e-54 5.0458e-54 4.95878e-54 4.86193e-54 4.75183e-54 4.62541e-54 4.48035e-54 4.31534e-54 4.1302e-54 3.92578e-54 3.70384e-54 3.46682e-54 3.21762e-54 2.95942e-54 2.69561e-54 2.42969e-54 2.16528e-54 1.90606e-54 1.65573e-54 1.41788e-54 1.19577e-54 9.92218e-55 8.09339e-55 6.48438e-55 5.0993e-55 3.93357e-55 2.97487e-55 2.20478e-55 1.60075e-55 1.13821e-55 7.92448e-56 5.40141e-56 3.60405e-56 2.35398e-56 1.50502e-56 9.4194e-57 5.77129e-57 3.46203e-57 2.03351e-57 1.16971e-57 6.59005e-58 3.63705e-58 1.96669e-58 1.04214e-58 5.41263e-59 2.7559e-59 1.37588e-59 6.73678e-60 3.23568e-60 1.52481e-60 7.0517e-61 3.20106e-61 1.42662e-61 6.24351e-62 2.6838e-62 1.13335e-62 4.70282e-63 1.91791e-63 7.68888e-64 3.03075e-64 1.17484e-64 4.47952e-65 1.68035e-65 6.20245e-66 2.25325e-66 8.0578e-67 2.83705e-67 9.83643e-68 3.35869e-68 1.12877e-68 3.70613e-69 1.09829e-69 0 
0 4.20742e-96 2.25421e-95 1.15588e-94 5.86375e-94 2.94617e-93 1.46603e-92 7.22438e-92 3.52525e-91 1.70323e-90 8.14737e-90 3.85816e-89 1.80852e-88 8.39091e-88 3.85296e-87 1.75082e-86 7.87237e-86 3.50224e-85 1.54141e-84 6.71092e-84 2.88994e-83 1.23082e-82 5.18387e-82 2.15883e-81 8.88876e-81 3.61804e-80 1.45568e-79 5.7885e-79 2.27471e-78 8.83263e-78 3.38849e-77 1.28417e-76 4.80706e-76 1.77715e-75 6.48781e-75 2.33853e-74 8.32146e-74 2.92285e-73 1.01322e-72 3.466e-72 1.16981e-71 3.89493e-71 1.27913e-70 4.14281e-70 1.32303e-69 4.16554e-69 1.29278e-68 3.95423e-68 1.19181e-67 3.53902e-67 1.03518e-66 2.98214e-66 8.4594e-66 2.36249e-65 6.49441e-65 1.75697e-64 4.67691e-64 1.22473e-63 3.15441e-63 7.98932e-63 1.98941e-62 4.86934e-62 1.17127e-61 2.7682e-61 6.42678e-61 1.46539e-60 3.28084e-60 7.21096e-60 1.55555e-59 3.29277e-59 6.83805e-59 1.39285e-58 2.78215e-58 5.44844e-58 1.0459e-57 1.96762e-57 3.62695e-57 6.5495e-57 1.15841e-56 2.00643e-56 3.40271e-56 5.64939e-56 9.18108e-56 1.46033e-55 2.27318e-55 3.46266e-55 5.16132e-55 7.52802e-55 1.07444e-54 1.50069e-54 2.05144e-54 2.74508e-54 3.59648e-54 4.6148e-54 5.80148e-54 7.14873e-54 8.6388e-54 1.02444e-53 1.193e-53 1.36547e-53 1.53749e-53 1.70484e-53 1.86374e-53 2.01113e-53 2.14484e-53 2.26362e-53 2.36709e-53 2.45558e-53 2.52989e-53 2.59103e-53 2.64001e-53 2.67759e-53 2.70423e-53 2.72002e-53 2.72475e-53 2.71804e-53 2.69958e-53 2.66934e-53 2.62783e-53 2.57629e-53 2.51677e-53 2.45217e-53 2.38607e-53 2.32246e-53 2.26541e-53 2.21864e-53 2.18517e-53 2.16698e-53 2.16482e-53 2.17817e-53 2.20536e-53 2.24375e-53 2.29014e-53 2.34104e-53 2.39306e-53 2.44317e-53 2.48891e-53 2.5285e-53 2.56083e-53 2.58546e-53 2.60246e-53 2.6124e-53 2.61613e-53 2.61472e-53 2.60939e-53 2.60134e-53 2.59179e-53 2.58184e-53 2.57249e-53 2.56461e-53 2.55893e-53 2.55604e-53 2.55643e-53 2.56043e-53 2.56829e-53 2.58012e-53 2.59588e-53 2.61539e-53 2.63834e-53 2.66426e-53 2.69264e-53 2.72292e-53 2.75455e-53 2.78706e-53 2.82004e-53 2.85312e-53 2.8859e-53 2.91787e-53 2.94835e-53 2.97638e-53 3.00082e-53 3.02034e-53 3.03366e-53 3.03965e-53 3.03757e-53 3.02723e-53 3.00902e-53 2.98389e-53 2.95319e-53 2.91846e-53 2.88115e-53 2.84231e-53 2.80245e-53 2.76136e-53 2.71818e-53 2.67148e-53 2.61951e-53 2.56041e-53 2.49255e-53 2.41467e-53 2.32606e-53 2.22661e-53 2.11677e-53 1.99749e-53 1.87005e-53 1.73601e-53 1.59707e-53 1.45504e-53 1.31181e-53 1.16931e-53 1.02955e-53 8.94518e-54 7.66154e-54 6.46243e-54 5.3631e-54 4.37512e-54 3.50565e-54 2.75703e-54 2.12686e-54 1.60854e-54 1.19215e-54 8.65528e-55 6.15411e-55 4.28442e-55 2.92011e-55 1.94826e-55 1.27238e-55 8.13409e-56 5.09022e-56 3.11838e-56 1.87036e-56 1.09844e-56 6.31737e-57 3.55856e-57 1.96363e-57 1.06162e-57 5.62445e-58 2.92064e-58 1.48679e-58 7.42136e-59 3.63302e-59 1.7446e-59 8.21975e-60 3.80058e-60 1.72489e-60 7.68581e-61 3.36298e-61 1.44531e-61 6.10221e-62 2.53163e-62 1.03225e-62 4.13751e-63 1.63059e-63 6.31964e-64 2.40918e-64 9.03566e-65 3.33465e-65 1.21122e-65 4.3307e-66 1.52454e-66 5.28496e-67 1.8043e-67 6.06293e-68 1.99038e-68 5.89769e-69 0 
0 2.15389e-95 1.15394e-94 5.91677e-94 3.00143e-93 1.50798e-92 7.50354e-92 3.69751e-91 1.8042e-90 8.71686e-90 4.16959e-89 1.97446e-88 9.25522e-88 4.29405e-87 1.97174e-86 8.95973e-86 4.02865e-85 1.79227e-84 7.88823e-84 3.43437e-83 1.47898e-82 6.29908e-82 2.65306e-81 1.1049e-80 4.54948e-80 1.85187e-79 7.45112e-79 2.96308e-78 1.16446e-77 4.52184e-77 1.73484e-76 6.57511e-76 2.46146e-75 9.10061e-75 3.32262e-74 1.19774e-73 4.26246e-73 1.49731e-72 5.19102e-72 1.77592e-71 5.9946e-71 1.99617e-70 6.55643e-70 2.12375e-69 6.78326e-69 2.136e-68 6.63009e-68 2.02825e-67 6.11413e-67 1.81586e-66 5.31238e-66 1.53065e-65 4.34276e-65 1.21305e-64 3.33525e-64 9.02477e-64 2.4028e-63 6.29341e-63 1.62127e-62 4.10713e-62 1.02293e-61 2.5043e-61 6.0252e-61 1.42432e-60 3.30751e-60 7.5433e-60 1.68925e-59 3.71365e-59 8.01293e-59 1.69656e-58 3.52404e-58 7.17978e-58 1.43446e-57 2.80981e-57 5.39497e-57 1.01516e-56 1.87167e-56 3.38053e-56 5.98032e-56 1.03603e-55 1.75733e-55 2.91813e-55 4.74316e-55 7.54558e-55 1.17473e-54 1.78965e-54 2.66789e-54 3.89163e-54 5.55481e-54 7.75904e-54 1.06071e-53 1.41941e-53 1.85968e-53 2.38623e-53 2.99978e-53 3.69626e-53 4.46645e-53 5.29618e-53 6.16707e-53 7.05787e-53 7.94609e-53 8.80985e-53 9.62966e-53 1.03897e-52 1.10788e-52 1.16906e-52 1.22233e-52 1.26785e-52 1.30606e-52 1.33747e-52 1.36262e-52 1.3819e-52 1.39556e-52 1.40365e-52 1.40606e-52 1.40258e-52 1.39307e-52 1.3775e-52 1.35614e-52 1.32961e-52 1.29898e-52 1.26574e-52 1.23172e-52 1.19899e-52 1.16963e-52 1.14557e-52 1.12836e-52 1.11901e-52 1.11791e-52 1.1248e-52 1.13881e-52 1.15858e-52 1.18247e-52 1.20867e-52 1.23545e-52 1.26123e-52 1.28477e-52 1.30514e-52 1.32177e-52 1.33443e-52 1.34317e-52 1.34827e-52 1.35018e-52 1.34945e-52 1.3467e-52 1.34256e-52 1.33765e-52 1.33253e-52 1.32772e-52 1.32367e-52 1.32074e-52 1.31926e-52 1.31945e-52 1.3215e-52 1.32554e-52 1.33161e-52 1.33971e-52 1.34973e-52 1.36152e-52 1.37484e-52 1.38942e-52 1.40498e-52 1.42124e-52 1.43794e-52 1.4549e-52 1.4719e-52 1.48876e-52 1.5052e-52 1.52087e-52 1.5353e-52 1.54787e-52 1.55792e-52 1.56478e-52 1.56787e-52 1.56681e-52 1.5615e-52 1.55213e-52 1.53921e-52 1.52342e-52 1.50556e-52 1.48637e-52 1.4664e-52 1.4459e-52 1.42479e-52 1.4026e-52 1.3786e-52 1.35189e-52 1.32152e-52 1.28664e-52 1.2466e-52 1.20103e-52 1.14988e-52 1.09337e-52 1.03197e-52 9.66353e-53 8.97304e-53 8.25698e-53 7.52461e-53 6.78562e-53 6.05004e-53 5.32817e-53 4.63036e-53 3.9667e-53 3.34647e-53 2.77762e-53 2.26623e-53 1.81605e-53 1.42834e-53 1.10193e-53 8.33407e-54 6.17671e-54 4.48437e-54 3.18837e-54 2.21958e-54 1.51267e-54 1.00914e-54 6.58984e-55 4.21224e-55 2.63561e-55 1.61439e-55 9.68134e-56 5.68475e-56 3.26885e-56 1.84099e-56 1.01567e-56 5.49001e-57 2.90801e-57 1.50974e-57 7.6839e-58 3.8346e-58 1.87676e-58 9.01033e-59 4.24431e-59 1.96201e-59 8.90259e-60 3.96595e-60 1.73494e-60 7.4546e-61 3.14671e-61 1.30519e-61 5.32071e-62 2.13221e-62 8.40127e-63 3.2554e-63 1.24078e-63 4.65264e-64 1.71674e-64 6.23441e-65 2.2287e-65 7.84433e-66 2.71883e-66 9.28059e-67 3.11801e-67 1.02345e-67 3.03218e-68 0 
0 1.09082e-94 5.84382e-94 2.99627e-93 1.51987e-92 7.63587e-92 3.79942e-91 1.87218e-90 9.13511e-90 4.41346e-89 2.11108e-88 9.99664e-88 4.68584e-87 2.17403e-86 9.98266e-86 4.53619e-85 2.03966e-84 9.07413e-84 3.99381e-83 1.73885e-82 7.48836e-82 3.18943e-81 1.34337e-80 5.59486e-80 2.30379e-79 9.37803e-79 3.77349e-78 1.50068e-77 5.89788e-77 2.29041e-76 8.78793e-76 3.33091e-75 1.24706e-74 4.61106e-74 1.68364e-73 6.06979e-73 2.1603e-72 7.58944e-72 2.63148e-71 9.00372e-71 3.03957e-70 1.01229e-69 3.32531e-69 1.07728e-68 3.44134e-68 1.08381e-67 3.36466e-67 1.02947e-66 3.10385e-66 9.21984e-66 2.69779e-65 7.77454e-65 2.20621e-64 6.16371e-64 1.69504e-63 4.58752e-63 1.22166e-62 3.20045e-62 8.24662e-62 2.08956e-61 5.20548e-61 1.27468e-60 3.06753e-60 7.25315e-60 1.68471e-59 3.84317e-59 8.60846e-59 1.89295e-58 4.08541e-58 8.65207e-58 1.79762e-57 3.6633e-57 7.32069e-57 1.43432e-56 2.7546e-56 5.18447e-56 9.5608e-56 1.72721e-55 3.05616e-55 5.29554e-55 8.98414e-55 1.49214e-54 2.42576e-54 3.8596e-54 6.00967e-54 9.15675e-54 1.36519e-53 1.9916e-53 2.84301e-53 3.97145e-53 5.42953e-53 7.26588e-53 9.51975e-53 1.22152e-52 1.53556e-52 1.892e-52 2.2861e-52 2.71058e-52 3.156e-52 3.61146e-52 4.06545e-52 4.50676e-52 4.92542e-52 5.31337e-52 5.6649e-52 5.97682e-52 6.2482e-52 6.47998e-52 6.67437e-52 6.8341e-52 6.96188e-52 7.05982e-52 7.12915e-52 7.17014e-52 7.18222e-52 7.16442e-52 7.1159e-52 7.03656e-52 6.92772e-52 6.79259e-52 6.63658e-52 6.46726e-52 6.29399e-52 6.12726e-52 5.97773e-52 5.8552e-52 5.76755e-52 5.71999e-52 5.71448e-52 5.74966e-52 5.82109e-52 5.92191e-52 6.04365e-52 6.17718e-52 6.31359e-52 6.44495e-52 6.56482e-52 6.66852e-52 6.75317e-52 6.8176e-52 6.86206e-52 6.88801e-52 6.89769e-52 6.89395e-52 6.87993e-52 6.85883e-52 6.83379e-52 6.80773e-52 6.78324e-52 6.76261e-52 6.74773e-52 6.74015e-52 6.74111e-52 6.75153e-52 6.77204e-52 6.80291e-52 6.84407e-52 6.89503e-52 6.95497e-52 7.02271e-52 7.09688e-52 7.17601e-52 7.25869e-52 7.34369e-52 7.42993e-52 7.51646e-52 7.60223e-52 7.68593e-52 7.76574e-52 7.83919e-52 7.90325e-52 7.95447e-52 7.98943e-52 8.0052e-52 7.99984e-52 7.97282e-52 7.92516e-52 7.85935e-52 7.77897e-52 7.68804e-52 7.59036e-52 7.48873e-52 7.38446e-52 7.27703e-52 7.16416e-52 7.04212e-52 6.90628e-52 6.75182e-52 6.57437e-52 6.37064e-52 6.13873e-52 5.8783e-52 5.59051e-52 5.27773e-52 4.94331e-52 4.59124e-52 4.22595e-52 3.85215e-52 3.47475e-52 3.09887e-52 2.72979e-52 2.37283e-52 2.03316e-52 1.71557e-52 1.42418e-52 1.16212e-52 9.31369e-53 7.32592e-53 5.65204e-53 4.27486e-53 3.16828e-53 2.30016e-53 1.63534e-53 1.13837e-53 7.75751e-54 5.17472e-54 3.37878e-54 2.15944e-54 1.35097e-54 8.27381e-55 4.96088e-55 2.91244e-55 1.6744e-55 9.42821e-56 5.20045e-56 2.81042e-56 1.48833e-56 7.72519e-57 3.93088e-57 1.96123e-57 9.5966e-58 4.60625e-58 2.16926e-58 1.00254e-58 4.54796e-59 2.02556e-59 8.85893e-60 3.80557e-60 1.60603e-60 6.65995e-61 2.71436e-61 1.0875e-61 4.28402e-62 1.65965e-62 6.32433e-63 2.37099e-63 8.74677e-64 3.17579e-64 1.13507e-64 3.99435e-65 1.38418e-65 4.72398e-66 1.58685e-66 5.20775e-67 1.5427e-67 0 
0 5.47131e-94 2.93101e-93 1.50274e-92 7.62249e-92 3.82943e-91 1.90537e-90 9.38858e-90 4.58097e-89 2.21317e-88 1.05861e-87 5.01279e-87 2.34968e-86 1.09015e-85 5.00574e-85 2.27465e-84 1.02279e-83 4.55028e-83 2.00276e-82 8.71994e-82 3.75533e-81 1.59951e-80 6.73731e-80 2.80606e-79 1.1555e-78 4.70392e-78 1.89285e-77 7.52811e-77 2.95884e-76 1.14913e-75 4.40935e-75 1.67142e-74 6.25814e-74 2.31419e-73 8.45064e-73 3.0469e-72 1.08454e-71 3.81057e-71 1.32139e-70 4.52176e-70 1.5267e-69 5.08516e-69 1.67069e-68 5.41323e-68 1.7295e-67 5.44775e-67 1.69151e-66 5.17634e-66 1.56094e-65 4.63754e-65 1.35723e-64 3.91206e-64 1.11036e-63 3.10277e-63 8.53451e-63 2.3103e-62 6.15371e-62 1.61249e-61 4.15586e-61 1.05328e-60 2.62453e-60 6.42832e-60 1.54735e-59 3.65962e-59 8.50243e-59 1.94007e-58 4.34674e-58 9.56068e-58 2.06394e-57 4.37211e-57 9.08613e-57 1.8521e-56 3.70215e-56 7.25529e-56 1.39372e-55 2.62376e-55 4.83968e-55 8.74515e-55 1.54773e-54 2.68239e-54 4.55172e-54 7.56122e-54 1.22945e-53 1.95649e-53 3.04688e-53 4.64309e-53 6.92332e-53 1.01012e-52 1.44208e-52 2.01461e-52 2.75441e-52 3.68613e-52 4.82965e-52 6.19709e-52 7.79014e-52 9.59802e-52 1.15965e-51 1.37486e-51 1.60063e-51 1.83141e-51 2.06136e-51 2.2848e-51 2.49666e-51 2.69288e-51 2.87058e-51 3.02814e-51 3.16514e-51 3.28207e-51 3.38006e-51 3.46053e-51 3.52485e-51 3.57413e-51 3.60898e-51 3.62955e-51 3.63556e-51 3.62652e-51 3.602e-51 3.56193e-51 3.50699e-51 3.43878e-51 3.36003e-51 3.27457e-51 3.18711e-51 3.10296e-51 3.02749e-51 2.96565e-51 2.92143e-51 2.89746e-51 2.89472e-51 2.91252e-51 2.94862e-51 2.99955e-51 3.06104e-51 3.12846e-51 3.19733e-51 3.26363e-51 3.32413e-51 3.37644e-51 3.41914e-51 3.45163e-51 3.47404e-51 3.48711e-51 3.49197e-51 3.49007e-51 3.48298e-51 3.47233e-51 3.45969e-51 3.44654e-51 3.43419e-51 3.42378e-51 3.41626e-51 3.41243e-51 3.41291e-51 3.41815e-51 3.42848e-51 3.44402e-51 3.46475e-51 3.49043e-51 3.52063e-51 3.55477e-51 3.59215e-51 3.63203e-51 3.6737e-51 3.71655e-51 3.76003e-51 3.80365e-51 3.84691e-51 3.88913e-51 3.92939e-51 3.96646e-51 3.99879e-51 4.02466e-51 4.04232e-51 4.0503e-51 4.04762e-51 4.034e-51 4.00996e-51 3.97677e-51 3.93621e-51 3.89035e-51 3.84108e-51 3.78982e-51 3.73725e-51 3.6831e-51 3.62622e-51 3.56472e-51 3.49627e-51 3.41843e-51 3.32898e-51 3.22627e-51 3.10932e-51 2.97795e-51 2.83273e-51 2.67484e-51 2.50596e-51 2.32808e-51 2.14343e-51 1.95437e-51 1.76338e-51 1.57305e-51 1.38605e-51 1.20508e-51 1.0328e-51 8.71637e-52 7.23707e-52 5.90623e-52 4.73399e-52 3.72394e-52 2.87322e-52 2.17319e-52 1.61065e-52 1.1693e-52 8.31297e-53 5.78632e-53 3.9428e-53 2.62981e-53 1.7169e-53 1.09715e-53 6.86286e-54 4.20235e-54 2.51924e-54 1.47872e-54 8.49964e-55 4.78499e-55 2.63876e-55 1.42571e-55 7.54852e-56 3.91716e-56 1.99273e-56 9.93993e-57 4.86257e-57 2.3334e-57 1.09862e-57 5.07611e-58 2.30217e-58 1.02508e-58 4.48217e-59 1.92496e-59 8.12174e-60 3.36716e-60 1.37201e-60 5.49566e-61 2.16442e-61 8.38317e-62 3.19381e-62 1.1971e-62 4.41525e-63 1.60276e-63 5.72734e-64 2.01506e-64 6.98152e-65 2.38223e-65 8.00077e-66 2.62526e-66 7.77576e-67 0 
0 2.7178e-93 1.45589e-92 7.46415e-92 3.78598e-91 1.90197e-90 9.46323e-90 4.66284e-89 2.2751e-88 1.09913e-87 5.25734e-87 2.48948e-86 1.16691e-85 5.41395e-85 2.48598e-84 1.12967e-83 5.07956e-83 2.25988e-82 9.94686e-82 4.33094e-81 1.86522e-80 7.94486e-80 3.34658e-79 1.3939e-78 5.7402e-78 2.3369e-77 9.40419e-77 3.74042e-76 1.47023e-75 5.71039e-75 2.19132e-74 8.3072e-74 3.11068e-73 1.15041e-72 4.20132e-72 1.51496e-71 5.39309e-71 1.89511e-70 6.57251e-70 2.24939e-69 7.59575e-69 2.53037e-68 8.31456e-68 2.69444e-67 8.61e-67 2.71252e-66 8.42379e-66 2.5783e-65 7.77637e-65 2.3108e-64 6.76418e-64 1.95009e-63 5.53612e-63 1.54733e-62 4.25705e-62 1.15265e-61 3.07091e-61 8.04877e-61 2.07491e-60 5.26001e-60 1.311e-59 3.21189e-59 7.73329e-59 1.82946e-58 4.25153e-58 9.70363e-58 2.17469e-57 4.78452e-57 1.03315e-56 2.18914e-56 4.55069e-56 9.27852e-56 1.85517e-55 3.63661e-55 6.98761e-55 1.31579e-54 2.42766e-54 4.38775e-54 7.76729e-54 1.34646e-53 2.28529e-53 3.79704e-53 6.17514e-53 9.82862e-53 1.53088e-52 2.33323e-52 3.47955e-52 5.07727e-52 7.24918e-52 1.01281e-51 1.38481e-51 1.85331e-51 2.42829e-51 3.11582e-51 3.91669e-51 4.82543e-51 5.8298e-51 6.91109e-51 8.04512e-51 9.20396e-51 1.03582e-50 1.14792e-50 1.25416e-50 1.3525e-50 1.4415e-50 1.52037e-50 1.58889e-50 1.64733e-50 1.69627e-50 1.73643e-50 1.76851e-50 1.79307e-50 1.81043e-50 1.82065e-50 1.82361e-50 1.81906e-50 1.80678e-50 1.78673e-50 1.75924e-50 1.72513e-50 1.68574e-50 1.643e-50 1.59926e-50 1.55717e-50 1.51942e-50 1.4885e-50 1.46639e-50 1.45442e-50 1.45307e-50 1.46199e-50 1.48007e-50 1.50557e-50 1.53634e-50 1.57007e-50 1.60452e-50 1.63769e-50 1.66794e-50 1.69409e-50 1.71543e-50 1.73167e-50 1.74286e-50 1.74938e-50 1.7518e-50 1.75084e-50 1.74729e-50 1.74195e-50 1.73563e-50 1.72906e-50 1.72288e-50 1.71768e-50 1.71392e-50 1.712e-50 1.71223e-50 1.71485e-50 1.72e-50 1.72776e-50 1.7381e-50 1.75092e-50 1.766e-50 1.78305e-50 1.80171e-50 1.82163e-50 1.84244e-50 1.86384e-50 1.88556e-50 1.90736e-50 1.92897e-50 1.95008e-50 1.9702e-50 1.98874e-50 2.00492e-50 2.01786e-50 2.0267e-50 2.0307e-50 2.02937e-50 2.02257e-50 2.01056e-50 1.99396e-50 1.97369e-50 1.95076e-50 1.92614e-50 1.90053e-50 1.87426e-50 1.84722e-50 1.81882e-50 1.78811e-50 1.75394e-50 1.71507e-50 1.6704e-50 1.61909e-50 1.56066e-50 1.495e-50 1.42239e-50 1.34342e-50 1.25892e-50 1.16987e-50 1.07738e-50 9.82624e-51 8.86846e-51 7.9134e-51 6.9745e-51 6.06538e-51 5.1994e-51 4.38894e-51 3.64469e-51 2.97488e-51 2.38471e-51 1.87606e-51 1.44756e-51 1.09491e-51 8.11486e-52 5.8911e-52 4.18799e-52 2.91489e-52 1.98602e-52 1.32451e-52 8.64611e-53 5.52433e-53 3.45501e-53 2.11525e-53 1.26782e-53 7.44024e-54 4.27574e-54 2.40657e-54 1.32684e-54 7.16721e-55 3.79381e-55 1.96824e-55 1.00103e-55 4.99198e-56 2.44144e-56 1.17127e-56 5.51318e-57 2.54668e-57 1.1547e-57 5.14017e-58 2.24696e-58 9.64757e-59 4.06945e-59 1.68672e-59 6.87113e-60 2.75159e-60 1.08343e-60 4.19532e-61 1.59796e-61 5.98807e-62 2.20808e-62 8.01371e-63 2.86302e-63 1.00709e-63 3.48853e-64 1.19012e-64 3.99627e-65 1.31105e-65 3.8826e-66 0 
0 1.33689e-92 7.16132e-92 3.6714e-91 1.86217e-90 9.35477e-90 4.65435e-89 2.29331e-88 1.11894e-87 5.40571e-87 2.58562e-86 1.22435e-85 5.73899e-85 2.66265e-84 1.22265e-83 5.55597e-83 2.4983e-82 1.11151e-81 4.89244e-81 2.13027e-80 9.17486e-80 3.90816e-79 1.64629e-78 6.85739e-78 2.82409e-77 1.14979e-76 4.62729e-76 1.84059e-75 7.23528e-75 2.81041e-74 1.07857e-73 4.08919e-73 1.53137e-72 5.66398e-72 2.06873e-71 7.46053e-71 2.65619e-70 9.33494e-70 3.23792e-69 1.10831e-68 3.74309e-68 1.24712e-67 4.09858e-67 1.32842e-66 4.24565e-66 1.3378e-65 4.15532e-65 1.27208e-64 3.83744e-64 1.14055e-63 3.33933e-63 9.62926e-63 2.73425e-62 7.64391e-62 2.1035e-61 5.69684e-61 1.51813e-60 3.97996e-60 1.02626e-59 2.6023e-59 6.48767e-59 1.58987e-58 3.82897e-58 9.06066e-58 2.10621e-57 4.80851e-57 1.07794e-56 2.37224e-56 5.12395e-56 1.08602e-55 2.25821e-55 4.6056e-55 9.21109e-55 1.80611e-54 3.4713e-54 6.53833e-54 1.20664e-53 2.18144e-53 3.86257e-53 6.69733e-53 1.13696e-52 1.88949e-52 3.07349e-52 4.89282e-52 7.62223e-52 1.16189e-51 1.73298e-51 2.52903e-51 3.61124e-51 5.0458e-51 6.89954e-51 9.23417e-51 1.20992e-50 1.55249e-50 1.95148e-50 2.40414e-50 2.90433e-50 3.4427e-50 4.00717e-50 4.58378e-50 5.15785e-50 5.71515e-50 6.24304e-50 6.73138e-50 7.17305e-50 7.56415e-50 7.90369e-50 8.19306e-50 8.43519e-50 8.63373e-50 8.79223e-50 8.91348e-50 8.99909e-50 9.04945e-50 9.06389e-50 9.04117e-50 8.98018e-50 8.88078e-50 8.74456e-50 8.57549e-50 8.38031e-50 8.16848e-50 7.9517e-50 7.74312e-50 7.55608e-50 7.40286e-50 7.29336e-50 7.23408e-50 7.22748e-50 7.27183e-50 7.36155e-50 7.48802e-50 7.6406e-50 7.80785e-50 7.97861e-50 8.14295e-50 8.29282e-50 8.42237e-50 8.52805e-50 8.6084e-50 8.66379e-50 8.69601e-50 8.70794e-50 8.70313e-50 8.68549e-50 8.65906e-50 8.62773e-50 8.59515e-50 8.56456e-50 8.53877e-50 8.52015e-50 8.51064e-50 8.51175e-50 8.52465e-50 8.55011e-50 8.58847e-50 8.63964e-50 8.70305e-50 8.77764e-50 8.86198e-50 8.95433e-50 9.05288e-50 9.15588e-50 9.26179e-50 9.36929e-50 9.47719e-50 9.58421e-50 9.68872e-50 9.78843e-50 9.88027e-50 9.96044e-50 1.00246e-49 1.00685e-49 1.00884e-49 1.00818e-49 1.00482e-49 9.98869e-50 9.9065e-50 9.80609e-50 9.69254e-50 9.57059e-50 9.4438e-50 9.3138e-50 9.17997e-50 9.03946e-50 8.88758e-50 8.71854e-50 8.52625e-50 8.30524e-50 8.05132e-50 7.76205e-50 7.43692e-50 7.07725e-50 6.68592e-50 6.26697e-50 5.82528e-50 5.36627e-50 4.89574e-50 4.41982e-50 3.94497e-50 3.47785e-50 3.02528e-50 2.59394e-50 2.19005e-50 1.819e-50 1.48493e-50 1.19048e-50 9.36634e-51 7.22743e-51 5.46684e-51 4.05173e-51 2.94133e-51 2.09089e-51 1.45518e-51 9.91371e-52 6.61085e-52 4.31483e-52 2.75649e-52 1.72367e-52 1.05508e-52 6.32261e-53 3.70968e-53 2.1314e-53 1.19937e-53 6.61105e-54 3.57023e-54 1.88935e-54 9.79952e-55 4.98266e-55 2.48411e-55 1.21458e-55 5.82535e-56 2.74126e-56 1.26592e-56 5.73826e-57 2.55371e-57 1.11603e-57 4.79049e-58 2.02015e-58 8.37095e-59 3.40917e-59 1.36488e-59 5.37279e-60 2.07997e-60 7.92046e-61 2.96735e-61 1.09394e-61 3.9693e-62 1.41778e-62 4.98605e-63 1.72678e-63 5.88973e-64 1.9773e-64 6.48564e-65 1.92039e-65 0 
0 6.51167e-92 3.488e-91 1.78815e-90 9.06941e-90 4.55601e-89 2.26675e-88 1.11686e-87 5.44928e-87 2.63259e-86 1.2592e-85 5.96259e-85 2.79491e-84 1.29673e-83 5.95449e-83 2.70589e-82 1.21676e-81 5.41359e-81 2.38292e-80 1.03761e-79 4.46907e-79 1.90375e-78 8.01987e-78 3.34074e-77 1.37591e-76 5.60217e-76 2.25474e-75 8.96933e-75 3.5261e-74 1.36977e-73 5.25735e-73 1.99342e-72 7.46598e-72 2.7617e-71 1.00881e-70 3.63855e-70 1.29561e-69 4.55392e-69 1.5798e-68 5.4083e-68 1.82683e-67 6.08761e-67 2.00098e-66 6.48665e-66 2.07352e-65 6.53485e-65 2.03018e-64 6.21626e-64 1.87563e-63 5.57589e-63 1.63287e-62 4.7096e-62 1.33761e-61 3.74034e-61 1.02954e-60 2.78897e-60 7.43411e-60 1.94945e-59 5.02813e-59 1.27533e-58 3.18035e-58 7.79592e-58 1.87807e-57 4.44543e-57 1.03367e-56 2.36057e-56 5.29332e-56 1.16525e-55 2.51764e-55 5.33772e-55 1.11022e-54 2.26495e-54 4.53116e-54 8.88724e-54 1.70859e-53 3.21909e-53 5.94242e-53 1.07459e-52 1.90321e-52 3.3008e-52 5.60488e-52 9.31666e-52 1.51579e-51 2.41353e-51 3.76057e-51 5.73337e-51 8.55264e-51 1.24829e-50 1.78265e-50 2.49102e-50 3.4064e-50 4.55923e-50 5.97394e-50 7.66529e-50 9.63502e-50 1.18693e-49 1.43378e-49 1.69939e-49 1.97779e-49 2.26207e-49 2.54498e-49 2.8195e-49 3.07938e-49 3.31963e-49 3.53678e-49 3.72892e-49 3.8956e-49 4.03753e-49 4.1562e-49 4.25343e-49 4.33099e-49 4.39028e-49 4.4321e-49 4.45666e-49 4.46363e-49 4.45239e-49 4.42239e-49 4.37356e-49 4.30667e-49 4.22366e-49 4.12783e-49 4.02382e-49 3.91738e-49 3.81496e-49 3.72313e-49 3.64791e-49 3.59417e-49 3.5651e-49 3.56191e-49 3.58374e-49 3.62785e-49 3.69e-49 3.76497e-49 3.84712e-49 3.93097e-49 4.01166e-49 4.08523e-49 4.14881e-49 4.20065e-49 4.24006e-49 4.2672e-49 4.28298e-49 4.28881e-49 4.28642e-49 4.27774e-49 4.26475e-49 4.24937e-49 4.23337e-49 4.21836e-49 4.2057e-49 4.19656e-49 4.19188e-49 4.19241e-49 4.19872e-49 4.21119e-49 4.22998e-49 4.25505e-49 4.28612e-49 4.32268e-49 4.36402e-49 4.40929e-49 4.45761e-49 4.50811e-49 4.56004e-49 4.61275e-49 4.66567e-49 4.71817e-49 4.76945e-49 4.81838e-49 4.86347e-49 4.90284e-49 4.93437e-49 4.95594e-49 4.96573e-49 4.96254e-49 4.94605e-49 4.91686e-49 4.87653e-49 4.82726e-49 4.77153e-49 4.7117e-49 4.64951e-49 4.58576e-49 4.52016e-49 4.45129e-49 4.37687e-49 4.29403e-49 4.1998e-49 4.09147e-49 3.96698e-49 3.82512e-49 3.66562e-49 3.48912e-49 3.29699e-49 3.09122e-49 2.87417e-49 2.64847e-49 2.41697e-49 2.18268e-49 1.94875e-49 1.71848e-49 1.49524e-49 1.28236e-49 1.08292e-49 8.99606e-50 7.34497e-50 5.88922e-50 4.63389e-50 3.57589e-50 2.70489e-50 2.00471e-50 1.45527e-50 1.03444e-50 7.19875e-51 4.90381e-51 3.26966e-51 2.13376e-51 1.36292e-51 8.52099e-52 5.21482e-52 3.12435e-52 1.83276e-52 1.05277e-52 5.92268e-53 3.26383e-53 1.76215e-53 9.32276e-54 4.83415e-54 2.4573e-54 1.22475e-54 5.98663e-55 2.87048e-55 1.35039e-55 6.23435e-56 2.82517e-56 1.25693e-56 5.49152e-57 2.35655e-57 9.93479e-58 4.11558e-58 1.67566e-58 6.7068e-59 2.63941e-59 1.02153e-59 3.88897e-60 1.45661e-60 5.36863e-61 1.9475e-61 6.95456e-62 2.44523e-62 8.46649e-63 2.88713e-63 9.69064e-64 3.17794e-64 9.40831e-65 0 
0 3.14028e-91 1.68206e-90 8.62297e-90 4.37344e-89 2.19695e-88 1.09303e-87 5.3855e-87 2.62761e-86 1.26942e-85 6.07179e-85 2.87515e-84 1.34771e-83 6.25295e-83 2.87136e-82 1.30485e-81 5.8677e-81 2.61073e-80 1.14922e-79 5.00434e-79 2.1555e-78 9.18255e-78 3.86852e-77 1.61156e-76 6.63776e-76 2.70284e-75 1.08792e-74 4.32807e-74 1.70164e-73 6.61091e-73 2.5376e-72 9.6228e-72 3.60445e-71 1.33346e-70 4.87154e-70 1.75729e-69 6.25817e-69 2.19999e-68 7.63314e-68 2.61354e-67 8.82951e-67 2.9428e-66 9.67462e-66 3.13682e-65 1.00291e-64 3.16136e-64 9.82337e-64 3.00848e-63 9.07945e-63 2.69975e-62 7.90791e-62 2.28137e-61 6.48109e-61 1.81275e-60 4.99091e-60 1.35237e-59 3.60575e-59 9.45796e-59 2.44013e-58 6.19089e-58 1.54429e-57 3.7866e-57 9.12477e-57 2.1605e-56 5.02519e-56 1.14795e-55 2.57494e-55 5.67011e-55 1.22546e-54 2.59894e-54 5.40735e-54 1.10349e-53 2.20826e-53 4.33249e-53 8.33178e-53 1.57022e-52 2.89943e-52 5.24459e-52 9.29121e-52 1.61182e-51 2.73761e-51 4.55164e-51 7.40703e-51 1.17963e-50 1.83836e-50 2.80324e-50 4.18232e-50 6.10509e-50 8.71949e-50 1.21855e-49 1.66644e-49 2.23052e-49 2.9227e-49 3.75016e-49 4.71369e-49 5.80645e-49 7.01346e-49 8.31189e-49 9.67237e-49 1.10611e-48 1.24425e-48 1.37821e-48 1.50496e-48 1.62207e-48 1.72783e-48 1.82134e-48 1.90239e-48 1.97134e-48 2.02895e-48 2.07611e-48 2.1137e-48 2.14241e-48 2.16265e-48 2.17451e-48 2.17783e-48 2.17232e-48 2.15771e-48 2.13394e-48 2.1014e-48 2.06102e-48 2.0144e-48 1.96381e-48 1.91203e-48 1.86221e-48 1.81754e-48 1.78096e-48 1.75483e-48 1.7407e-48 1.73917e-48 1.74982e-48 1.77131e-48 1.80157e-48 1.83806e-48 1.87803e-48 1.91883e-48 1.95808e-48 1.99385e-48 2.02476e-48 2.04996e-48 2.0691e-48 2.08228e-48 2.08994e-48 2.09275e-48 2.09158e-48 2.08735e-48 2.08102e-48 2.07354e-48 2.06576e-48 2.05846e-48 2.0523e-48 2.04785e-48 2.04557e-48 2.04583e-48 2.04888e-48 2.05493e-48 2.06405e-48 2.07622e-48 2.0913e-48 2.10905e-48 2.12913e-48 2.15111e-48 2.17458e-48 2.19911e-48 2.22433e-48 2.24994e-48 2.27566e-48 2.30117e-48 2.3261e-48 2.34989e-48 2.37182e-48 2.39098e-48 2.40632e-48 2.41683e-48 2.4216e-48 2.42007e-48 2.41206e-48 2.39787e-48 2.37827e-48 2.35431e-48 2.32722e-48 2.29814e-48 2.26792e-48 2.23695e-48 2.20509e-48 2.17166e-48 2.13553e-48 2.09532e-48 2.04958e-48 1.99698e-48 1.93652e-48 1.8676e-48 1.79009e-48 1.70429e-48 1.61085e-48 1.51073e-48 1.40506e-48 1.29512e-48 1.18228e-48 1.06801e-48 9.53831e-49 8.41368e-49 7.3227e-49 6.28168e-49 5.30587e-49 4.40854e-49 3.59998e-49 2.88683e-49 2.27168e-49 1.75312e-49 1.32614e-49 9.82857e-50 7.13458e-50 5.07116e-50 3.52875e-50 2.40354e-50 1.60237e-50 1.04555e-50 6.67718e-51 4.17381e-51 2.55384e-51 1.52975e-51 8.97154e-52 5.1522e-52 2.89779e-52 1.59648e-52 8.61709e-53 4.55767e-53 2.36264e-53 1.20063e-53 5.98238e-54 2.92335e-54 1.40128e-54 6.59025e-55 3.04161e-55 1.37793e-55 6.1287e-56 2.67682e-56 1.14836e-56 4.83986e-57 2.00438e-57 8.15854e-58 3.26452e-58 1.28437e-58 4.96955e-59 1.8914e-59 7.08238e-60 2.60968e-60 9.4644e-61 3.37892e-61 1.18774e-61 4.11155e-62 1.40175e-62 4.70391e-63 1.54228e-63 4.56513e-64 0 