# vtk DataFile Version 3.0
Gray-Scott Simulation Output
ASCII
DATASET STRUCTURED_POINTS
DIMENSIONS 256 256 1
SPACING 1.0 1.0 1.0
ORIGIN 0 0 0
POINT_DATA 65536
SCALARS u double
LOOKUP_TABLE default
0 0 0 0 0 0 0 0 0 0 0 0 0 0 0 0 0 0 0 0 0 0 0 0 0 0 0 0 0 0 0 0 0 0 0 0 0 0 0 0 0 0 0 0 0 0 0 0 0 0 0 0 0 0 0 0 0 0 0 0 0 0 0 0 0 0 0 0 0 0 0 0 0 0 0 0 0 0 0 0 0 0 0 0 0 0 0 0 0 0 0 0 0 0 0 0 0 0 0 0 0 0 0 0 0 0 0 0 0 0 0 0 0 0 0 0 0 0 0 0 0 0 0 0 0 0 0 0 0 0 0 0 0 0 0 0 0 0 0 0 0 0 0 0 0 0 0 0 0 0 0 0 0 0 0 0 0 0 0 0 0 0 0 0 0 0 0 0 0 0 0 0 0 0 0 0 0 0 0 0 0 0 0 0 0 0 0 0 0 0 0 0 0 0 0 0 0 0 0 0 0 0 0 0 0 0 0 0 0 0 0 0 0 0 0 0 0 0 0 0 0 0 0 0 0 0 0 0 0 0 0 0 0 0 0 0 0 0 0 0 0 0 0 0 0 0 0 0 0 0 0 0 0 0 0 0 
0 2.93917e-163 4.55891e-162 6.96798e-161 1.05357e-159 1.57578e-158 2.33108e-157 3.41038e-156 4.93382e-155 7.05754e-154 9.98072e-153 1.39528e-151 1.92795e-150 2.6328e-149 3.55282e-148 4.73704e-147 6.23967e-146 8.11862e-145 1.0433e-143 1.32399e-142 1.65899e-141 2.05224e-140 2.50594e-139 3.02e-138 3.59145e-137 4.21396e-136 4.87751e-135 5.56827e-134 6.26877e-133 6.95838e-132 7.61412e-131 8.21177e-130 8.72723e-129 9.13806e-128 9.42503e-127 9.57355e-126 9.57486e-125 9.42685e-124 9.13436e-123 8.70895e-122 8.16821e-121 7.53451e-120 6.83345e-119 6.09212e-118 5.33733e-117 4.59394e-116 3.88355e-115 3.22348e-114 2.62629e-113 2.09962e-112 1.64657e-111 1.26624e-110 9.54528e-110 7.05091e-109 5.10178e-108 3.61449e-107 2.50637e-106 1.70033e-105 1.12803e-104 7.31495e-104 4.63445e-103 2.86726e-102 1.73139e-101 1.01988e-100 5.85718e-100 3.27763e-99 1.78607e-98 9.47173e-98 4.88498e-97 2.44849e-96 1.19185e-95 5.62986e-95 2.5786e-94 1.14424e-93 4.91489e-93 2.04163e-92 8.19382e-92 3.17397e-91 1.1854e-90 4.26374e-90 1.47526e-89 4.90423e-89 1.56437e-88 4.78184e-88 1.39872e-87 3.90949e-87 1.04259e-86 2.64873e-86 6.40055e-86 1.46879e-85 3.19582e-85 6.58282e-85 1.28178e-84 2.35617e-84 4.08416e-84 6.67026e-84 1.02601e-83 1.48663e-83 2.03106e-83 2.62164e-83 3.20766e-83 3.73841e-83 4.1777e-83 4.51328e-83 4.75666e-83 4.93379e-83 5.07171e-83 5.18829e-83 5.28971e-83 5.37529e-83 5.44523e-83 5.50538e-83 5.56629e-83 5.63751e-83 5.72113e-83 5.80812e-83 5.8788e-83 5.9067e-83 5.86388e-83 5.72676e-83 5.48177e-83 5.13094e-83 4.696e-83 4.21906e-83 3.75778e-83 3.37465e-83 3.12308e-83 3.03459e-83 3.11185e-83 3.32948e-83 3.64204e-83 3.99582e-83 4.34067e-83 4.63918e-83 4.87156e-83 5.0358e-83 5.1436e-83 5.21317e-83 5.26135e-83 5.29783e-83 5.32338e-83 5.33212e-83 5.31636e-83 5.27158e-83 5.1997e-83 5.10965e-83 5.01507e-83 4.93029e-83 4.86605e-83 4.82664e-83 4.80948e-83 4.80698e-83 4.80999e-83 4.81165e-83 4.8107e-83 4.81291e-83 4.82999e-83 4.87595e-83 4.96182e-83 5.09051e-83 5.25349e-83 5.43097e-83 5.59626e-83 5.72352e-83 5.79675e-83 5.81664e-83 5.80282e-83 5.78987e-83 5.81763e-83 5.91765e-83 6.09988e-83 6.34475e-83 6.60486e-83 6.8172e-83 6.92245e-83 6.88436e-83 6.70189e-83 6.40965e-83 6.06654e-83 5.73741e-83 5.47522e-83 5.31006e-83 5.24753e-83 5.27352e-83 5.36052e-83 5.47218e-83 5.56649e-83 5.60053e-83 5.53849e-83 5.36115e-83 5.07251e-83 4.69951e-83 4.28411e-83 3.87019e-83 3.49046e-83 3.15789e-83 2.8649e-83 2.58994e-83 2.30881e-83 2.00575e-83 1.67996e-83 1.34516e-83 1.02351e-83 7.3714e-84 5.01383e-84 3.21723e-84 1.94712e-84 1.11189e-84 5.9955e-85 3.05597e-85 1.47425e-85 6.74043e-86 2.92498e-86 1.20647e-86 4.73708e-87 1.77317e-87 6.33666e-88 2.165e-88 7.08171e-89 2.22065e-89 6.684e-90 1.9335e-90 5.38166e-91 1.44292e-91 3.73069e-92 9.31131e-93 2.24561e-93 5.23803e-94 1.18278e-94 2.58772e-95 5.48991e-96 1.13028e-96 2.26001e-97 4.39184e-98 8.30032e-99 1.52665e-99 2.73436e-100 4.77203e-101 8.11961e-102 1.34769e-102 2.18325e-103 3.45375e-104 5.3379e-105 8.06391e-106 1.19128e-106 1.72172e-107 2.43543e-108 3.37311e-109 4.5761e-110 6.08323e-111 7.92691e-112 1.01288e-112 1.26952e-113 1.56105e-114 1.8588e-115 0 
0 4.55672e-162 7.06351e-161 1.07894e-159 1.63036e-158 2.43696e-157 3.6028e-156 5.26766e-155 7.61607e-154 1.08876e-152 1.53878e-151 2.14985e-150 2.96878e-149 4.05168e-148 5.46419e-147 7.28106e-146 9.58488e-145 1.24636e-143 1.60069e-142 2.03012e-141 2.54226e-140 3.14298e-139 3.83552e-138 4.61957e-137 5.49042e-136 6.43824e-135 7.44761e-134 8.49731e-133 9.56063e-132 1.06061e-130 1.15988e-129 1.25019e-128 1.32788e-127 1.38958e-126 1.43239e-125 1.45412e-124 1.45347e-123 1.43018e-122 1.38501e-121 1.31975e-120 1.2371e-119 1.14047e-118 1.03377e-117 9.21101e-117 8.06525e-116 6.93803e-115 5.86188e-114 4.86286e-113 3.95975e-112 3.16393e-111 2.47987e-110 1.90601e-109 1.43603e-108 1.06019e-107 7.66701e-107 5.42898e-106 3.76258e-105 2.5512e-104 1.69162e-103 1.09639e-102 6.94267e-102 4.2931e-101 2.59105e-100 1.52549e-99 8.75649e-99 4.89761e-98 2.66751e-97 1.41392e-96 7.28863e-96 3.6515e-95 1.77659e-94 8.388e-94 3.84009e-93 1.70323e-92 7.31263e-92 3.03628e-91 1.21804e-90 4.71616e-90 1.76062e-89 6.33007e-89 2.18932e-88 7.27506e-88 2.31972e-87 7.08801e-87 2.07253e-86 5.79073e-86 1.54374e-85 3.92064e-85 9.47105e-85 2.17275e-84 4.72616e-84 9.73246e-84 1.8946e-83 3.48187e-83 6.03423e-83 9.85338e-83 1.5154e-82 2.19548e-82 2.99922e-82 3.87106e-82 4.73619e-82 5.5198e-82 6.16844e-82 6.664e-82 7.02342e-82 7.28495e-82 7.48848e-82 7.66044e-82 7.81001e-82 7.93629e-82 8.03961e-82 8.12859e-82 8.21875e-82 8.32412e-82 8.44774e-82 8.57624e-82 8.6806e-82 8.72176e-82 8.65855e-82 8.45615e-82 8.0946e-82 7.57688e-82 6.93508e-82 6.23136e-82 5.55079e-82 4.98559e-82 4.61453e-82 4.48412e-82 4.59825e-82 4.91951e-82 5.38082e-82 5.90292e-82 6.41185e-82 6.85243e-82 7.19543e-82 7.4379e-82 7.59708e-82 7.69977e-82 7.77079e-82 7.82443e-82 7.86183e-82 7.8744e-82 7.85084e-82 7.78455e-82 7.67843e-82 7.54564e-82 7.40631e-82 7.28154e-82 7.1871e-82 7.12927e-82 7.10418e-82 7.10063e-82 7.1051e-82 7.10751e-82 7.10602e-82 7.10916e-82 7.13422e-82 7.20186e-82 7.32835e-82 7.51796e-82 7.7581e-82 8.01964e-82 8.26325e-82 8.45088e-82 8.55893e-82 8.58846e-82 8.56835e-82 8.54957e-82 8.59078e-82 8.73839e-82 9.00707e-82 9.36795e-82 9.75117e-82 1.00639e-81 1.02189e-81 1.01627e-81 9.89376e-82 9.46312e-82 8.9575e-82 8.47246e-82 8.08599e-82 7.84248e-82 7.75018e-82 7.7883e-82 7.91636e-82 8.08075e-82 8.21953e-82 8.26944e-82 8.17767e-82 7.91586e-82 7.48985e-82 6.93936e-82 6.32622e-82 5.71515e-82 5.15439e-82 4.66316e-82 4.23033e-82 3.82416e-82 3.40897e-82 2.9615e-82 2.48054e-82 1.98631e-82 1.51148e-82 1.0887e-82 7.40604e-83 4.75297e-83 2.87706e-83 1.64323e-83 8.86243e-84 4.51827e-84 2.18021e-84 9.97067e-85 4.32788e-85 1.78563e-85 7.01322e-86 2.62598e-86 9.38737e-87 3.2084e-87 1.04984e-87 3.29322e-88 9.91609e-89 2.86956e-89 7.99021e-90 2.14318e-90 5.54355e-91 1.38418e-91 3.33967e-92 7.79342e-93 1.76059e-93 3.85362e-94 8.1793e-95 1.68477e-95 3.37031e-96 6.55261e-97 1.239e-97 2.27998e-98 4.08565e-99 7.13389e-100 1.21444e-100 2.01676e-101 3.2688e-102 5.17372e-103 8.00034e-104 1.20924e-104 1.78735e-105 2.58457e-106 3.65793e-107 5.06903e-108 6.88058e-109 9.15167e-110 1.19319e-110 1.52546e-111 1.91304e-112 2.35365e-113 2.8041e-114 0 
0 6.96117e-161 1.0784e-159 1.64621e-158 2.48601e-157 3.7136e-156 5.48678e-155 8.01724e-154 1.15843e-152 1.65502e-151 2.33763e-150 3.26393e-149 4.50448e-148 6.14377e-147 8.28054e-146 1.10271e-144 1.45073e-143 1.8853e-142 2.41981e-141 3.06711e-140 3.83853e-139 4.7427e-138 5.78423e-137 6.96244e-136 8.26998e-135 9.69184e-134 1.12046e-132 1.27762e-131 1.43664e-130 1.5928e-129 1.74084e-128 1.87528e-127 1.99065e-126 2.08192e-125 2.1448e-124 2.17606e-123 2.17384e-122 2.13776e-121 2.06904e-120 1.97042e-119 1.84596e-118 1.7008e-117 1.54079e-116 1.37209e-115 1.20073e-114 1.03233e-113 8.71718e-113 7.2275e-112 5.88196e-111 4.69722e-110 3.67961e-109 2.82657e-108 2.12843e-107 1.57053e-106 1.13515e-105 8.03361e-105 5.56475e-104 3.77114e-103 2.49921e-102 1.61896e-101 1.02464e-100 6.33271e-100 3.82007e-99 2.24793e-98 1.28968e-97 7.20973e-97 3.92487e-96 2.07935e-95 1.07137e-94 5.3648e-94 2.60892e-93 1.23119e-92 5.63387e-92 2.49769e-91 1.07187e-90 4.4485e-90 1.78377e-89 6.90366e-89 2.57615e-88 9.25831e-88 3.20077e-87 1.06318e-86 3.38872e-86 1.03505e-85 3.02534e-85 8.44991e-85 2.25187e-84 5.71718e-84 1.38066e-83 3.16642e-83 6.88561e-83 1.41756e-82 2.75886e-82 5.06907e-82 8.78316e-82 1.43396e-81 2.20504e-81 3.19422e-81 4.36319e-81 5.63117e-81 6.88942e-81 8.02918e-81 8.97275e-81 9.69371e-81 1.02166e-80 1.0597e-80 1.08929e-80 1.11428e-80 1.13601e-80 1.15437e-80 1.16941e-80 1.18237e-80 1.19552e-80 1.21088e-80 1.22888e-80 1.24758e-80 1.26276e-80 1.26875e-80 1.25955e-80 1.23012e-80 1.17756e-80 1.10229e-80 1.00899e-80 9.06701e-81 8.07783e-81 7.25642e-81 6.71725e-81 6.52791e-81 6.69404e-81 7.16122e-81 7.83195e-81 8.59104e-81 9.33097e-81 9.97156e-81 1.04703e-80 1.0823e-80 1.10545e-80 1.12038e-80 1.1307e-80 1.13847e-80 1.14386e-80 1.14564e-80 1.14217e-80 1.1325e-80 1.11707e-80 1.09778e-80 1.07756e-80 1.05947e-80 1.04579e-80 1.03743e-80 1.03382e-80 1.03333e-80 1.03398e-80 1.03432e-80 1.03409e-80 1.03453e-80 1.03815e-80 1.04796e-80 1.06632e-80 1.09383e-80 1.12869e-80 1.16666e-80 1.20203e-80 1.22928e-80 1.24499e-80 1.24931e-80 1.24643e-80 1.24374e-80 1.24977e-80 1.27123e-80 1.31026e-80 1.36265e-80 1.41827e-80 1.46365e-80 1.48613e-80 1.47796e-80 1.43891e-80 1.3764e-80 1.303e-80 1.23258e-80 1.17646e-80 1.14109e-80 1.12767e-80 1.13318e-80 1.15174e-80 1.17559e-80 1.1957e-80 1.20291e-80 1.18954e-80 1.15146e-80 1.08952e-80 1.00948e-80 9.20325e-81 8.3145e-81 7.49872e-81 6.78391e-81 6.15398e-81 5.56288e-81 4.95878e-81 4.30789e-81 3.60838e-81 2.88961e-81 2.19903e-81 1.58412e-81 1.07776e-81 6.91776e-82 4.18816e-82 2.39251e-82 1.29062e-82 6.5813e-83 3.17644e-83 1.45304e-83 6.30875e-84 2.60365e-84 1.02291e-84 3.8313e-85 1.37006e-85 4.68415e-86 1.53326e-86 4.81141e-87 1.44929e-87 4.19563e-88 1.16872e-88 3.13609e-89 8.11515e-90 2.02715e-90 4.89308e-91 1.14235e-91 2.5818e-92 5.65368e-93 1.20054e-93 2.47404e-94 4.95155e-95 9.63151e-96 1.82206e-96 3.35456e-97 6.01425e-98 1.05066e-98 1.78951e-99 2.97327e-100 4.82161e-101 7.63539e-102 1.18131e-102 1.78647e-103 2.64195e-104 3.82241e-105 5.41275e-106 7.50485e-107 1.01925e-107 1.35641e-108 1.76945e-109 2.26346e-110 2.84013e-111 3.49621e-112 4.16761e-113 0 
0 1.05201e-159 1.62873e-158 2.48474e-157 3.74997e-156 5.59822e-155 8.26615e-154 1.20709e-152 1.74308e-151 2.48875e-150 3.51308e-149 4.90213e-148 6.76116e-147 9.21606e-146 1.24138e-144 1.65212e-143 2.17221e-142 2.82118e-141 3.61882e-140 4.58409e-139 5.73358e-138 7.07985e-137 8.62945e-136 1.0381e-134 1.23231e-133 1.44332e-132 1.6676e-131 1.90038e-130 2.13565e-129 2.36638e-128 2.5848e-127 2.78277e-126 2.95224e-125 3.0858e-124 3.17713e-123 3.22157e-122 3.21641e-121 3.1612e-120 3.05782e-119 2.91039e-118 2.72499e-117 2.50928e-116 2.27192e-115 2.02201e-114 1.76849e-113 1.51961e-112 1.28247e-111 1.06271e-110 8.64388e-110 6.89902e-109 5.40145e-108 4.14696e-107 3.12099e-106 2.30167e-105 1.66271e-104 1.17609e-103 8.14226e-103 5.51495e-102 3.65294e-101 2.3651e-100 1.49609e-99 9.24174e-99 5.57202e-98 3.27721e-97 1.87925e-96 1.05003e-95 5.7134e-95 3.02541e-94 1.55806e-93 7.79812e-93 3.79044e-92 1.78794e-91 8.17768e-91 3.62379e-90 1.55442e-89 6.44834e-89 2.58454e-88 9.99853e-88 3.72944e-87 1.33975e-86 4.62988e-86 1.53727e-85 4.89791e-85 1.49545e-84 4.36945e-84 1.21997e-83 3.25008e-83 8.24878e-83 1.9914e-82 4.56573e-82 9.92576e-82 2.04291e-81 3.97495e-81 7.30189e-81 1.26495e-80 2.06483e-80 3.17467e-80 4.59829e-80 6.28053e-80 8.10522e-80 9.91594e-80 1.15563e-79 1.29144e-79 1.39522e-79 1.4705e-79 1.52525e-79 1.56781e-79 1.60374e-79 1.63498e-79 1.66138e-79 1.68303e-79 1.70173e-79 1.7207e-79 1.74285e-79 1.76879e-79 1.79571e-79 1.81756e-79 1.82617e-79 1.81294e-79 1.7706e-79 1.69498e-79 1.58671e-79 1.45252e-79 1.3054e-79 1.16315e-79 1.04503e-79 9.67515e-80 9.40317e-80 9.64244e-80 1.03147e-79 1.12796e-79 1.23716e-79 1.3436e-79 1.43576e-79 1.50753e-79 1.55827e-79 1.5916e-79 1.61308e-79 1.62789e-79 1.63903e-79 1.64673e-79 1.64921e-79 1.64416e-79 1.63021e-79 1.608e-79 1.58027e-79 1.55124e-79 1.52529e-79 1.50569e-79 1.49374e-79 1.4886e-79 1.48791e-79 1.48886e-79 1.48934e-79 1.48899e-79 1.4896e-79 1.49478e-79 1.50885e-79 1.5352e-79 1.57471e-79 1.62478e-79 1.67932e-79 1.73013e-79 1.76929e-79 1.79188e-79 1.79812e-79 1.79404e-79 1.79025e-79 1.79896e-79 1.82984e-79 1.88592e-79 1.96118e-79 2.04106e-79 2.10622e-79 2.13848e-79 2.12672e-79 2.07063e-79 1.98083e-79 1.87541e-79 1.77425e-79 1.69363e-79 1.6428e-79 1.62348e-79 1.63136e-79 1.658e-79 1.69221e-79 1.72107e-79 1.73137e-79 1.71208e-79 1.65728e-79 1.56818e-79 1.45304e-79 1.32476e-79 1.19686e-79 1.07944e-79 9.76521e-80 8.85809e-80 8.00695e-80 7.13726e-80 6.20043e-80 5.19376e-80 4.15945e-80 3.16566e-80 2.2807e-80 1.55188e-80 9.9625e-81 6.03252e-81 3.44675e-81 1.85968e-81 9.48524e-82 4.57908e-82 2.09518e-82 9.0992e-83 3.75632e-83 1.4762e-83 5.53079e-84 1.97843e-84 6.76637e-85 2.2156e-85 6.9551e-86 2.09578e-86 6.06951e-87 1.69137e-87 4.54034e-88 1.17537e-88 2.93728e-89 7.09298e-90 1.65666e-90 3.74586e-91 8.20644e-92 1.74342e-92 3.59444e-93 7.19731e-94 1.40065e-94 2.651e-95 4.88307e-96 8.75898e-97 1.53092e-97 2.60881e-98 4.33673e-99 7.03628e-100 1.11482e-100 1.7257e-101 2.61112e-102 3.86352e-103 5.59278e-104 7.92394e-105 1.09926e-105 1.49373e-106 1.98894e-107 2.59602e-108 3.32262e-109 4.17144e-110 5.13793e-111 6.12793e-112 0 
0 1.57262e-158 2.43324e-157 3.70978e-156 5.59531e-155 8.34789e-154 1.23186e-152 1.79775e-151 2.5944e-150 3.70198e-149 5.22243e-148 7.28287e-147 1.00386e-145 1.36751e-144 1.84087e-143 2.44848e-142 3.21731e-141 4.17597e-140 5.35342e-139 6.77726e-138 8.47159e-137 1.04545e-135 1.2735e-134 1.53106e-133 1.81642e-132 2.12618e-131 2.45511e-130 2.79615e-129 3.14046e-128 3.47769e-127 3.79645e-126 4.08482e-125 4.33106e-124 4.52434e-123 4.65555e-122 4.71792e-121 4.70763e-120 4.62416e-119 4.47036e-118 4.25239e-117 3.97924e-116 3.66216e-115 3.31386e-114 2.94767e-113 2.57664e-112 2.21279e-111 1.86643e-110 1.54575e-109 1.25659e-108 1.00238e-107 7.84362e-107 6.01865e-106 4.52717e-105 3.33689e-104 2.40925e-103 1.70324e-102 1.17855e-101 7.97841e-101 5.28189e-100 3.41799e-99 2.161e-98 1.33422e-97 8.04016e-97 4.72647e-96 2.70894e-95 1.51287e-94 8.22772e-94 4.35469e-93 2.24154e-92 1.12136e-91 5.44804e-91 2.56862e-90 1.1743e-89 5.2013e-89 2.23009e-88 9.24722e-88 3.70474e-87 1.4326e-86 5.34134e-86 1.91801e-85 6.62556e-85 2.19904e-84 7.00367e-84 2.13759e-83 6.24341e-83 1.74258e-82 4.64078e-82 1.17746e-81 2.84171e-81 6.51336e-81 1.41559e-80 2.9128e-80 5.66618e-80 1.04064e-79 1.8024e-79 2.94165e-79 4.52214e-79 6.54924e-79 8.94443e-79 1.15424e-78 1.41205e-78 1.64561e-78 1.83902e-78 1.98684e-78 2.09405e-78 2.17201e-78 2.23259e-78 2.28369e-78 2.32812e-78 2.36569e-78 2.39654e-78 2.42321e-78 2.45029e-78 2.48189e-78 2.51887e-78 2.55722e-78 2.58833e-78 2.60058e-78 2.58175e-78 2.52148e-78 2.41385e-78 2.25978e-78 2.06882e-78 1.85948e-78 1.65707e-78 1.48903e-78 1.37878e-78 1.34012e-78 1.37422e-78 1.46992e-78 1.60727e-78 1.76268e-78 1.91418e-78 2.04535e-78 2.14751e-78 2.21976e-78 2.26721e-78 2.29778e-78 2.31884e-78 2.33463e-78 2.3455e-78 2.34894e-78 2.34165e-78 2.32174e-78 2.29011e-78 2.25068e-78 2.20944e-78 2.17261e-78 2.14483e-78 2.12792e-78 2.12067e-78 2.11974e-78 2.1211e-78 2.12178e-78 2.12125e-78 2.12208e-78 2.12941e-78 2.14937e-78 2.1868e-78 2.24294e-78 2.31408e-78 2.39158e-78 2.46379e-78 2.51947e-78 2.55161e-78 2.56055e-78 2.55483e-78 2.54953e-78 2.56199e-78 2.60594e-78 2.68568e-78 2.79264e-78 2.90612e-78 2.99868e-78 3.04448e-78 3.02774e-78 2.94802e-78 2.82042e-78 2.67061e-78 2.52686e-78 2.41226e-78 2.33998e-78 2.31249e-78 2.32364e-78 2.36144e-78 2.41001e-78 2.45096e-78 2.46551e-78 2.438e-78 2.35998e-78 2.23315e-78 2.06928e-78 1.88668e-78 1.70459e-78 1.53736e-78 1.39076e-78 1.26152e-78 1.14026e-78 1.01639e-78 8.82979e-79 7.39647e-79 5.92384e-79 4.50888e-79 3.24878e-79 2.21089e-79 1.41951e-79 8.59689e-80 4.91282e-80 2.65123e-80 1.35254e-80 6.53097e-81 2.98901e-81 1.29844e-81 5.36167e-82 2.10769e-82 7.89917e-83 2.82651e-83 9.67008e-84 3.16748e-84 9.94671e-85 2.99834e-85 8.68664e-86 2.42161e-86 6.50319e-87 1.68418e-87 4.21057e-88 1.0172e-88 2.37684e-89 5.37661e-90 1.17844e-90 2.50467e-91 5.16631e-92 1.03496e-92 2.01506e-93 3.81571e-94 7.03185e-95 1.26195e-95 2.20677e-96 3.7624e-97 6.25754e-98 1.0158e-98 1.61025e-99 2.49389e-100 3.77542e-101 5.58921e-102 8.09515e-103 1.14755e-103 1.5928e-104 2.16555e-105 2.88506e-106 3.76771e-107 4.82491e-108 6.06087e-109 7.46926e-110 8.91332e-111 0 
0 2.32517e-157 3.59539e-156 5.47821e-155 8.25743e-154 1.2312e-152 1.8157e-151 2.64816e-150 3.81929e-149 5.44644e-148 7.67865e-147 1.07016e-145 1.47419e-144 2.00699e-143 2.70006e-142 3.58907e-141 4.71319e-140 6.11387e-139 7.83297e-138 9.91031e-137 1.23805e-135 1.52691e-134 1.85887e-133 2.23349e-132 2.64818e-131 3.09793e-130 3.57509e-129 4.06929e-128 4.56766e-127 5.05518e-126 5.51529e-125 5.93074e-124 6.28457e-123 6.56121e-122 6.74756e-121 6.834e-120 6.81517e-119 6.69047e-118 6.46425e-117 6.14554e-116 5.74751e-115 5.28652e-114 4.78104e-113 4.25033e-112 3.71325e-111 3.18711e-110 2.68675e-109 2.2239e-108 1.80687e-107 1.44055e-106 1.12662e-105 8.64018e-105 6.49555e-104 4.78518e-103 3.45307e-102 2.43988e-101 1.68738e-100 1.1417e-99 7.55437e-99 4.88601e-98 3.08755e-97 1.90531e-96 1.14758e-95 6.74274e-95 3.86263e-94 2.15611e-93 1.17202e-92 6.20016e-92 3.18995e-91 1.59506e-90 7.74582e-90 3.65027e-89 1.66803e-88 7.38488e-88 3.1649e-87 1.31177e-86 5.25312e-86 2.03049e-85 7.56737e-85 2.71625e-84 9.37924e-84 3.11177e-83 9.90688e-83 3.02256e-82 8.82506e-82 2.46229e-81 6.55528e-81 1.66268e-80 4.01152e-80 9.19197e-80 1.99721e-79 4.10853e-79 7.99031e-79 1.46717e-78 2.54068e-78 4.14587e-78 6.37247e-78 9.22795e-78 1.26017e-77 1.6261e-77 1.98924e-77 2.31826e-77 2.59073e-77 2.799e-77 2.95007e-77 3.05989e-77 3.14518e-77 3.21709e-77 3.27961e-77 3.33249e-77 3.37596e-77 3.41361e-77 3.45185e-77 3.49644e-77 3.54859e-77 3.60264e-77 3.64646e-77 3.66371e-77 3.63718e-77 3.55231e-77 3.40078e-77 3.18387e-77 2.91504e-77 2.62036e-77 2.33547e-77 2.09897e-77 1.94382e-77 1.88948e-77 1.93755e-77 2.07233e-77 2.26573e-77 2.48456e-77 2.69787e-77 2.88256e-77 3.02642e-77 3.12818e-77 3.19501e-77 3.23807e-77 3.26768e-77 3.28982e-77 3.30499e-77 3.30969e-77 3.29931e-77 3.27119e-77 3.22663e-77 3.17117e-77 3.11321e-77 3.0615e-77 3.02255e-77 2.99888e-77 2.98879e-77 2.98753e-77 2.98946e-77 2.9904e-77 2.98962e-77 2.99073e-77 3.00099e-77 3.02902e-77 3.0816e-77 3.16051e-77 3.2605e-77 3.36945e-77 3.47098e-77 3.54928e-77 3.59453e-77 3.60718e-77 3.59925e-77 3.59192e-77 3.60956e-77 3.67144e-77 3.78359e-77 3.93396e-77 4.09347e-77 4.22354e-77 4.28787e-77 4.26429e-77 4.15221e-77 3.97283e-77 3.76223e-77 3.56013e-77 3.399e-77 3.29734e-77 3.25861e-77 3.27422e-77 3.3273e-77 3.3955e-77 3.45298e-77 3.47334e-77 3.4345e-77 3.32461e-77 3.14604e-77 2.9153e-77 2.65818e-77 2.40171e-77 2.16611e-77 1.95952e-77 1.77737e-77 1.60647e-77 1.43192e-77 1.24397e-77 1.04207e-77 8.34643e-78 6.35335e-78 4.57826e-78 3.11603e-78 2.00096e-78 1.21202e-78 6.92752e-79 3.73919e-79 1.90796e-79 9.21503e-80 4.21843e-80 1.83297e-80 7.57098e-81 2.97702e-81 1.11606e-81 3.99476e-82 1.36713e-82 4.47962e-83 1.40721e-83 4.24342e-84 1.22984e-84 3.42978e-85 9.21424e-86 2.38725e-86 5.97072e-87 1.44303e-87 3.37329e-88 7.63399e-89 1.67395e-89 3.55944e-90 7.34531e-91 1.47216e-91 2.86763e-92 5.43273e-93 1.00166e-93 1.79848e-94 3.14655e-95 5.36732e-96 8.93131e-97 1.45057e-97 2.30063e-98 3.56496e-99 5.39968e-100 7.998e-101 1.159e-101 1.64384e-102 2.28288e-103 3.10545e-104 4.13948e-105 5.40885e-106 6.93034e-107 8.71043e-108 1.07404e-108 1.28239e-109 0 
0 3.39986e-156 5.25394e-155 8.00033e-154 1.20516e-152 1.79581e-151 2.64671e-150 3.85779e-149 5.56046e-148 7.92453e-147 1.11655e-145 1.55517e-144 2.14099e-143 2.91302e-142 3.91658e-141 5.20297e-140 6.82844e-139 8.85237e-138 1.13347e-136 1.4332e-135 1.78935e-134 2.20552e-133 2.68342e-132 3.22228e-131 3.81829e-130 4.46411e-129 5.14863e-128 5.85689e-127 6.57032e-126 7.26731e-125 7.92412e-124 8.51604e-123 9.01885e-122 9.41038e-121 9.67205e-120 9.7903e-119 9.7577e-118 9.57367e-117 9.24467e-116 8.78387e-115 8.2103e-114 7.54751e-113 6.82199e-112 6.06132e-111 5.29245e-110 4.54002e-109 3.82513e-108 3.16442e-107 2.56962e-106 2.04754e-105 1.60046e-104 1.22675e-103 9.21754e-103 6.78679e-102 4.89487e-101 3.4568e-100 2.3894e-99 1.61585e-98 1.06862e-97 6.90805e-97 4.36308e-96 2.69106e-95 1.62003e-94 9.51389e-94 5.44741e-93 3.03924e-92 1.65127e-91 8.73123e-91 4.49003e-90 2.24408e-89 1.08925e-88 5.13079e-88 2.34351e-87 1.03708e-86 4.44259e-86 1.84054e-85 7.36748e-85 2.84655e-84 1.06044e-83 3.80483e-83 1.31329e-82 4.35547e-82 1.38612e-81 4.22746e-81 1.23387e-80 3.44146e-80 9.15907e-80 2.32237e-79 5.60146e-79 1.28315e-78 2.78725e-78 5.73231e-78 1.11457e-77 2.04613e-77 3.54258e-77 5.77984e-77 8.88274e-77 1.28616e-76 1.75624e-76 2.26609e-76 2.77207e-76 3.23053e-76 3.61026e-76 3.90054e-76 4.1111e-76 4.26412e-76 4.3829e-76 4.48299e-76 4.57e-76 4.64364e-76 4.70424e-76 4.75679e-76 4.8102e-76 4.87246e-76 4.9452e-76 5.02055e-76 5.0816e-76 5.10562e-76 5.06866e-76 4.95045e-76 4.73941e-76 4.43734e-76 4.06299e-76 3.65268e-76 3.25603e-76 2.92678e-76 2.71084e-76 2.63528e-76 2.70231e-76 2.89008e-76 3.15946e-76 3.46424e-76 3.76132e-76 4.01856e-76 4.21895e-76 4.36072e-76 4.45384e-76 4.5138e-76 4.55499e-76 4.5857e-76 4.60665e-76 4.61301e-76 4.59837e-76 4.55909e-76 4.497e-76 4.41982e-76 4.33925e-76 4.26744e-76 4.21342e-76 4.18066e-76 4.16675e-76 4.16508e-76 4.16779e-76 4.16906e-76 4.16792e-76 4.1694e-76 4.1836e-76 4.22252e-76 4.2956e-76 4.4053e-76 4.54433e-76 4.69582e-76 4.83703e-76 4.94595e-76 5.00896e-76 5.02667e-76 5.01579e-76 5.00577e-76 5.03047e-76 5.11665e-76 5.27268e-76 5.48179e-76 5.70355e-76 5.88434e-76 5.97372e-76 5.94088e-76 5.78501e-76 5.53558e-76 5.24273e-76 4.96169e-76 4.73758e-76 4.59613e-76 4.54219e-76 4.5638e-76 4.63751e-76 4.73225e-76 4.81206e-76 4.84021e-76 4.786e-76 4.63289e-76 4.38418e-76 4.06283e-76 3.70467e-76 3.34736e-76 3.01904e-76 2.73106e-76 2.47711e-76 2.23885e-76 1.99554e-76 1.73362e-76 1.4523e-76 1.16328e-76 8.85571e-77 6.38214e-77 4.34432e-77 2.79011e-77 1.69029e-77 9.66285e-78 5.2166e-78 2.66238e-78 1.28615e-78 5.8891e-79 2.55955e-79 1.05749e-79 4.15935e-80 1.55976e-80 5.58464e-81 1.91185e-81 6.26655e-82 1.96922e-82 5.94029e-83 1.72226e-83 4.80486e-84 1.29135e-84 3.34698e-85 8.3745e-86 2.02483e-86 4.73533e-87 1.0721e-87 2.35189e-88 5.00323e-89 1.03294e-89 2.07119e-90 4.03638e-91 7.65053e-92 1.41124e-92 2.53512e-93 4.43751e-94 7.57315e-95 1.26081e-95 2.04876e-96 3.25104e-97 5.04026e-98 7.63819e-99 1.13196e-99 1.6412e-100 2.32898e-101 3.23609e-102 4.40448e-103 5.87422e-104 7.67971e-105 9.84534e-106 1.23809e-106 1.52748e-107 1.82476e-108 0 
0 4.91585e-155 7.59198e-154 1.15534e-152 1.73931e-151 2.59014e-150 3.81506e-149 5.55734e-148 8.00519e-147 1.14017e-145 1.60549e-144 2.23481e-143 3.07478e-142 4.18097e-141 5.61794e-140 7.45861e-139 9.78285e-138 1.26748e-136 1.62192e-135 2.04959e-134 2.55737e-133 3.15028e-132 3.83061e-131 4.5971e-130 5.44416e-129 6.36122e-128 7.3323e-127 8.33604e-126 9.34596e-125 1.03313e-123 1.12585e-122 1.20924e-121 1.27989e-120 1.33468e-119 1.371e-118 1.38697e-117 1.38156e-116 1.35472e-115 1.30742e-114 1.24155e-113 1.15982e-112 1.06559e-111 9.62619e-111 8.54807e-110 7.45959e-109 6.39551e-108 5.38548e-107 4.45281e-106 3.61386e-105 2.87805e-104 2.2484e-103 1.72247e-102 1.29353e-101 9.5191e-101 6.86186e-100 4.84336e-99 3.34606e-98 2.26162e-97 1.49492e-96 9.65889e-96 6.09739e-95 3.75884e-94 2.2617e-93 1.32757e-92 7.59756e-92 4.23679e-91 2.30081e-90 1.21599e-89 6.25026e-89 3.12236e-88 1.51486e-87 7.13232e-87 3.25625e-86 1.44035e-85 6.16743e-85 2.55403e-84 1.02192e-83 3.94672e-83 1.46969e-82 5.2711e-82 1.81869e-81 6.02929e-81 1.9181e-80 5.84782e-80 1.70621e-79 4.75728e-79 1.26569e-78 3.20827e-78 7.73594e-78 1.7716e-77 3.84725e-77 7.91038e-77 1.53772e-76 2.82236e-76 4.88562e-76 7.96976e-76 1.22467e-75 1.77305e-75 2.42088e-75 3.1235e-75 3.82081e-75 4.45269e-75 4.9761e-75 5.37627e-75 5.66654e-75 5.87744e-75 6.04105e-75 6.17885e-75 6.29862e-75 6.40005e-75 6.48359e-75 6.55615e-75 6.62993e-75 6.71589e-75 6.81624e-75 6.92013e-75 7.00427e-75 7.03736e-75 6.98642e-75 6.82358e-75 6.53288e-75 6.11681e-75 5.60123e-75 5.03615e-75 4.48993e-75 4.03658e-75 3.73931e-75 3.63538e-75 3.72785e-75 3.98659e-75 4.3577e-75 4.77755e-75 5.18678e-75 5.54115e-75 5.81723e-75 6.01258e-75 6.1409e-75 6.2235e-75 6.28016e-75 6.32229e-75 6.35091e-75 6.35939e-75 6.33898e-75 6.28472e-75 6.19914e-75 6.09292e-75 5.98214e-75 5.88352e-75 5.80942e-75 5.76456e-75 5.7456e-75 5.74342e-75 5.74718e-75 5.74891e-75 5.74726e-75 5.7492e-75 5.76864e-75 5.82209e-75 5.92253e-75 6.07336e-75 6.26455e-75 6.4729e-75 6.66713e-75 6.81701e-75 6.90378e-75 6.92829e-75 6.91353e-75 6.89998e-75 6.93418e-75 7.05289e-75 7.26759e-75 7.5552e-75 7.86014e-75 8.10868e-75 8.2315e-75 8.18627e-75 7.97187e-75 7.62883e-75 7.22608e-75 6.83954e-75 6.53125e-75 6.3366e-75 6.26228e-75 6.29186e-75 6.39311e-75 6.52326e-75 6.63287e-75 6.67137e-75 6.59651e-75 6.38553e-75 6.04293e-75 5.60025e-75 5.10683e-75 4.61447e-75 4.16193e-75 3.7649e-75 3.41472e-75 3.08618e-75 2.75073e-75 2.3897e-75 2.00197e-75 1.60366e-75 1.22092e-75 8.79983e-76 5.99078e-76 3.84807e-76 2.33159e-76 1.33312e-76 7.19837e-77 3.67455e-77 1.7755e-77 8.13163e-78 3.53507e-78 1.46091e-78 5.7477e-79 2.15601e-79 7.72181e-80 2.64432e-80 8.67025e-81 2.72549e-81 8.22452e-82 2.38539e-82 6.65738e-83 1.78991e-83 4.641e-84 1.1617e-84 2.80996e-85 6.57423e-86 1.48907e-86 3.26803e-87 6.95523e-88 1.43659e-88 2.88187e-89 5.61885e-90 1.06549e-90 1.96638e-91 3.53405e-92 6.18906e-93 1.05676e-93 1.76021e-94 2.8617e-95 4.54332e-96 7.04735e-97 1.06853e-97 1.58435e-98 2.29831e-99 3.26319e-100 4.53657e-101 6.17778e-102 8.24367e-103 1.07832e-103 1.38316e-104 1.74033e-105 2.14828e-106 2.56776e-107 0 
0 7.02779e-154 1.0847e-152 1.64965e-151 2.48195e-150 3.69378e-149 5.43728e-148 7.91553e-147 1.13951e-145 1.62199e-144 2.28257e-143 3.17534e-142 4.36616e-141 5.93334e-140 7.96775e-139 1.05719e-137 1.38579e-136 1.79438e-135 2.29477e-134 2.89812e-133 3.61397e-132 4.44918e-131 5.40679e-130 6.48482e-129 7.67517e-128 8.96273e-127 1.03249e-125 1.17314e-124 1.31449e-123 1.45223e-122 1.58163e-121 1.6978e-120 1.79596e-119 1.87176e-118 1.92159e-117 1.94284e-116 1.93416e-115 1.89551e-114 1.82829e-113 1.73519e-112 1.62005e-111 1.48759e-110 1.34309e-109 1.192e-108 1.03964e-107 8.90845e-107 7.49742e-106 6.1956e-105 5.02555e-104 4.00015e-103 3.12333e-102 2.39145e-101 1.79497e-100 1.32021e-99 9.51176e-99 6.71023e-98 4.63339e-97 3.13012e-96 2.06792e-95 1.33543e-94 8.42596e-94 5.19173e-93 3.12232e-92 1.83182e-91 1.04782e-90 5.84037e-90 3.17012e-89 1.67463e-88 8.60366e-88 4.29603e-87 2.08332e-86 9.80434e-86 4.47416e-85 1.9782e-84 8.46678e-84 3.50473e-83 1.40173e-82 5.41133e-82 2.01427e-81 7.22142e-81 2.49065e-80 8.25385e-80 2.62484e-79 7.99965e-79 2.33324e-78 6.50341e-78 1.7297e-77 4.38311e-77 1.05657e-76 2.41898e-76 5.25173e-76 1.07955e-75 2.0981e-75 3.85011e-75 6.66351e-75 1.08683e-74 1.66984e-74 2.41731e-74 3.30027e-74 4.25789e-74 5.20831e-74 6.0696e-74 6.78313e-74 7.32871e-74 7.72447e-74 8.01194e-74 8.23482e-74 8.42243e-74 8.58548e-74 8.72362e-74 8.83753e-74 8.9366e-74 9.0374e-74 9.15479e-74 9.2917e-74 9.43335e-74 9.54802e-74 9.59309e-74 9.52368e-74 9.30182e-74 8.90581e-74 8.33905e-74 7.63679e-74 6.86716e-74 6.12327e-74 5.50593e-74 5.10122e-74 4.95987e-74 5.08602e-74 5.43861e-74 5.94425e-74 6.51623e-74 7.07374e-74 7.55652e-74 7.93267e-74 8.19888e-74 8.37375e-74 8.48629e-74 8.56336e-74 8.62052e-74 8.65919e-74 8.67036e-74 8.64223e-74 8.56808e-74 8.45145e-74 8.30687e-74 8.15624e-74 8.02228e-74 7.92175e-74 7.86102e-74 7.83548e-74 7.83267e-74 7.83783e-74 7.84014e-74 7.8378e-74 7.84031e-74 7.86661e-74 7.9392e-74 8.07574e-74 8.28083e-74 8.54084e-74 8.82422e-74 9.08843e-74 9.29237e-74 9.41054e-74 9.4441e-74 9.4243e-74 9.40618e-74 9.45299e-74 9.61471e-74 9.90688e-74 1.02981e-73 1.07128e-73 1.10507e-73 1.12176e-73 1.1156e-73 1.08643e-73 1.03978e-73 9.84999e-74 9.32422e-74 8.90482e-74 8.63992e-74 8.53866e-74 8.57871e-74 8.71623e-74 8.89307e-74 9.04193e-74 9.09399e-74 8.99177e-74 8.70425e-74 8.2375e-74 7.63445e-74 6.96217e-74 6.29119e-74 5.67434e-74 5.13299e-74 4.65544e-74 4.2074e-74 3.75002e-74 3.25784e-74 2.72934e-74 2.18644e-74 1.66474e-74 1.2e-74 8.17036e-75 5.24881e-75 3.1808e-75 1.81898e-75 9.82361e-76 5.01565e-76 2.42402e-76 1.11043e-76 4.82855e-77 1.99596e-77 7.8549e-78 2.94727e-78 1.05589e-78 3.61699e-79 1.18633e-79 3.73047e-80 1.1261e-80 3.26725e-81 9.12193e-82 2.45346e-82 6.36397e-83 1.59361e-83 3.85625e-84 9.0259e-85 2.04524e-85 4.49058e-86 9.56133e-87 1.97575e-87 3.96525e-88 7.73471e-89 1.4674e-89 2.70939e-90 4.87172e-91 8.5358e-92 1.45817e-92 2.43002e-93 3.95262e-94 6.27846e-95 9.74375e-96 1.47812e-96 2.19279e-97 3.18259e-98 4.52107e-99 6.28861e-100 8.56821e-101 1.14396e-101 1.49718e-102 1.92145e-103 2.41894e-104 2.9876e-105 3.57287e-106 0 