# vtk DataFile Version 3.0
Gray-Scott Simulation Output
ASCII
DATASET STRUCTURED_POINTS
DIMENSIONS 256 256 1
SPACING 1.0 1.0 1.0
ORIGIN 0 0 0
POINT_DATA 65536
SCALARS u double
LOOKUP_TABLE default
0 0 0 0 0 0 0 0 0 0 0 0 0 0 0 0 0 0 0 0 0 0 0 0 0 0 0 0 0 0 0 0 0 0 0 0 0 0 0 0 0 0 0 0 0 0 0 0 0 0 0 0 0 0 0 0 0 0 0 0 0 0 0 0 0 0 0 0 0 0 0 0 0 0 0 0 0 0 0 0 0 0 0 0 0 0 0 0 0 0 0 0 0 0 0 0 0 0 0 0 0 0 0 0 0 0 0 0 0 0 0 0 0 0 0 0 0 0 0 0 0 0 0 0 0 0 0 0 0 0 0 0 0 0 0 0 0 0 0 0 0 0 0 0 0 0 0 0 0 0 0 0 0 0 0 0 0 0 0 0 0 0 0 0 0 0 0 0 0 0 0 0 0 0 0 0 0 0 0 0 0 0 0 0 0 0 0 0 0 0 0 0 0 0 0 0 0 0 0 0 0 0 0 0 0 0 0 0 0 0 0 0 0 0 0 0 0 0 0 0 0 0 0 0 0 0 0 0 0 0 0 0 0 0 0 0 0 0 0 0 0 0 0 0 0 0 0 0 0 0 0 0 0 0 0 0 
0 5.4414e-76 1.87603e-75 5.88954e-75 1.8195e-74 5.57157e-74 1.69218e-73 5.0976e-73 1.52305e-72 4.51307e-72 1.32621e-71 3.86465e-71 1.11671e-70 3.19951e-70 9.08883e-70 2.55971e-69 7.14672e-69 1.97801e-68 5.42664e-68 1.47566e-67 3.97712e-67 1.0623e-66 2.8119e-66 7.37553e-66 1.91691e-65 4.93623e-65 1.25935e-64 3.18289e-64 7.96885e-64 1.97623e-63 4.85416e-63 1.18085e-62 2.8448e-62 6.78658e-62 1.6031e-61 3.74927e-61 8.68116e-61 1.98985e-60 4.51485e-60 1.01393e-59 2.25365e-59 4.95722e-59 1.07902e-58 2.32396e-58 4.95217e-58 1.04399e-57 2.17718e-57 4.49112e-57 9.16299e-57 1.84887e-56 3.68914e-56 7.27871e-56 1.4199e-55 2.7384e-55 5.22075e-55 9.83848e-55 1.8325e-54 3.37319e-54 6.13596e-54 1.10288e-53 1.95859e-53 3.43626e-53 5.95553e-53 1.01955e-52 1.72391e-52 2.87873e-52 4.74714e-52 7.72989e-52 1.24277e-51 1.97265e-51 3.09116e-51 4.7816e-51 7.30089e-51 1.10028e-50 1.63655e-50 2.40231e-50 3.48005e-50 4.97483e-50 7.01767e-50 9.76828e-50 1.34167e-49 1.81833e-49 2.43163e-49 3.2087e-49 4.1781e-49 5.36862e-49 6.80781e-49 8.5201e-49 1.05248e-48 1.28342e-48 1.54514e-48 1.83689e-48 2.15673e-48 2.50153e-48 2.86697e-48 3.24768e-48 3.63748e-48 4.02963e-48 4.41715e-48 4.79322e-48 5.1515e-48 5.48643e-48 5.79349e-48 6.06933e-48 6.31185e-48 6.52017e-48 6.69452e-48 6.836e-48 6.94647e-48 7.02821e-48 7.08376e-48 7.11576e-48 7.12674e-48 7.11916e-48 7.09528e-48 7.05728e-48 7.00728e-48 6.94741e-48 6.87992e-48 6.80718e-48 6.73176e-48 6.65632e-48 6.5836e-48 6.51632e-48 6.45698e-48 6.4078e-48 6.37051e-48 6.3463e-48 6.33569e-48 6.33853e-48 6.35402e-48 6.38075e-48 6.41684e-48 6.46005e-48 6.50798e-48 6.55818e-48 6.60836e-48 6.65645e-48 6.70077e-48 6.74004e-48 6.77345e-48 6.80063e-48 6.82165e-48 6.83693e-48 6.8472e-48 6.85343e-48 6.85674e-48 6.85831e-48 6.85938e-48 6.8611e-48 6.86456e-48 6.87071e-48 6.88037e-48 6.89415e-48 6.91253e-48 6.93576e-48 6.96395e-48 6.99702e-48 7.03472e-48 7.07666e-48 7.1223e-48 7.17096e-48 7.22184e-48 7.27406e-48 7.32659e-48 7.37835e-48 7.42819e-48 7.47492e-48 7.51734e-48 7.55428e-48 7.58466e-48 7.60751e-48 7.62204e-48 7.62764e-48 7.62396e-48 7.61084e-48 7.58834e-48 7.55671e-48 7.5163e-48 7.46751e-48 7.41072e-48 7.3462e-48 7.27405e-48 7.19417e-48 7.10617e-48 7.00943e-48 6.90306e-48 6.78598e-48 6.65693e-48 6.51456e-48 6.35752e-48 6.18454e-48 5.99452e-48 5.78664e-48 5.56046e-48 5.316e-48 5.05384e-48 4.77514e-48 4.48172e-48 4.17602e-48 3.86109e-48 3.54047e-48 3.21808e-48 2.89809e-48 2.58469e-48 2.28192e-48 1.99351e-48 1.72268e-48 1.47203e-48 1.24343e-48 1.03801e-48 8.56168e-49 6.97587e-49 5.6136e-49 4.46088e-49 3.50008e-49 2.71122e-49 2.0732e-49 1.56486e-49 1.16586e-49 8.573e-50 6.22194e-50 4.45675e-50 3.15073e-50 2.1984e-50 1.51396e-50 1.02907e-50 6.9042e-51 4.57234e-51 2.98909e-51 1.92904e-51 1.22904e-51 7.73113e-52 4.80176e-52 2.94489e-52 1.78352e-52 1.06675e-52 6.30165e-53 3.67696e-53 2.11934e-53 1.20677e-53 6.78885e-54 3.77359e-54 2.07269e-54 1.12506e-54 6.03546e-55 3.20022e-55 1.67733e-55 8.69078e-56 4.45153e-56 2.25364e-56 1.12639e-56 5.52816e-57 2.5986e-57 1.02592e-57 0 
0 1.87272e-75 6.45778e-75 2.02779e-74 6.26606e-74 1.91922e-73 5.83043e-73 1.75683e-72 5.25038e-72 1.55619e-71 4.57423e-71 1.33332e-70 3.85379e-70 1.10447e-69 3.13838e-69 8.84132e-69 2.46925e-68 6.8363e-68 1.87612e-67 5.10335e-67 1.37587e-66 3.67623e-66 9.73423e-66 2.55414e-65 6.64058e-65 1.71062e-64 4.36579e-64 1.10382e-63 2.76463e-63 6.85873e-63 1.68534e-62 4.10149e-62 9.88488e-62 2.3591e-61 5.57484e-61 1.30437e-60 3.02144e-60 6.92856e-60 1.57272e-59 3.53353e-59 7.85736e-59 1.72911e-58 3.76539e-58 8.11344e-58 1.7297e-57 3.64815e-57 7.61153e-57 1.57085e-56 3.20641e-56 6.47282e-56 1.29216e-55 2.55066e-55 4.97807e-55 9.60516e-55 1.83209e-54 3.45418e-54 6.43672e-54 1.1854e-53 2.15728e-53 3.87929e-53 6.89228e-53 1.20976e-52 2.09761e-52 3.59254e-52 6.07703e-52 1.01521e-51 1.6748e-51 2.72819e-51 4.3879e-51 6.96747e-51 1.09219e-50 1.69002e-50 2.58126e-50 3.89124e-50 5.78939e-50 8.5005e-50 1.23169e-49 1.7611e-49 2.48472e-49 3.45914e-49 4.75172e-49 6.44048e-49 8.61335e-49 1.13663e-48 1.48001e-48 1.90166e-48 2.41127e-48 3.01741e-48 3.72683e-48 4.54372e-48 5.46902e-48 6.49988e-48 7.62926e-48 8.8458e-48 1.0134e-47 1.14747e-47 1.28458e-47 1.42232e-47 1.55824e-47 1.68992e-47 1.81511e-47 1.93188e-47 2.03866e-47 2.13428e-47 2.21806e-47 2.28972e-47 2.34939e-47 2.3975e-47 2.43475e-47 2.46198e-47 2.48011e-47 2.4901e-47 2.49287e-47 2.48927e-47 2.48011e-47 2.46616e-47 2.44813e-47 2.42678e-47 2.40288e-47 2.37723e-47 2.35071e-47 2.32424e-47 2.29878e-47 2.27524e-47 2.25449e-47 2.2373e-47 2.22428e-47 2.21581e-47 2.21209e-47 2.21306e-47 2.21843e-47 2.22772e-47 2.24026e-47 2.25528e-47 2.27194e-47 2.28939e-47 2.30682e-47 2.32352e-47 2.3389e-47 2.35252e-47 2.3641e-47 2.37351e-47 2.38077e-47 2.38603e-47 2.38956e-47 2.39168e-47 2.39279e-47 2.3933e-47 2.39363e-47 2.3942e-47 2.39537e-47 2.39749e-47 2.40083e-47 2.40561e-47 2.41198e-47 2.42005e-47 2.42985e-47 2.44135e-47 2.45446e-47 2.46904e-47 2.48492e-47 2.50184e-47 2.51955e-47 2.53772e-47 2.556e-47 2.57402e-47 2.59138e-47 2.60765e-47 2.62243e-47 2.6353e-47 2.6459e-47 2.65388e-47 2.65896e-47 2.66095e-47 2.65972e-47 2.65521e-47 2.64745e-47 2.63654e-47 2.62259e-47 2.60576e-47 2.58619e-47 2.56397e-47 2.53914e-47 2.51169e-47 2.48147e-47 2.44827e-47 2.4118e-47 2.37166e-47 2.3274e-47 2.27856e-47 2.22465e-47 2.16519e-47 2.0998e-47 2.02814e-47 1.95005e-47 1.86549e-47 1.77464e-47 1.67787e-47 1.57581e-47 1.4693e-47 1.35937e-47 1.24728e-47 1.1344e-47 1.02219e-47 9.12157e-48 8.05727e-48 7.04232e-48 6.08827e-48 5.20451e-48 4.39786e-48 3.67251e-48 3.02999e-48 2.46936e-48 1.98753e-48 1.57966e-48 1.23958e-48 9.60278e-49 7.34337e-49 5.54291e-49 4.12952e-49 3.03645e-49 2.20356e-49 1.57823e-49 1.11559e-49 7.78274e-50 5.3587e-50 3.64167e-50 2.4427e-50 1.61728e-50 1.05699e-50 6.81942e-51 4.34352e-51 2.73137e-51 1.69588e-51 1.03971e-51 6.29459e-52 3.7635e-52 2.22238e-52 1.29624e-52 7.46834e-53 4.25082e-53 2.39039e-53 1.32815e-53 7.29195e-54 3.95639e-54 2.12153e-54 1.12443e-54 5.89093e-55 3.05095e-55 1.56206e-55 7.90469e-56 3.94914e-56 1.93738e-56 9.1036e-57 3.59308e-57 0 
0 5.86684e-75 2.02354e-74 6.35574e-74 1.96454e-73 6.0189e-73 1.82903e-72 5.51291e-72 1.64807e-71 4.88634e-71 1.43675e-70 4.18928e-70 1.21126e-69 3.47258e-69 9.87088e-69 2.78178e-68 7.77192e-68 2.15251e-67 5.90947e-67 1.60809e-66 4.33715e-66 1.15932e-65 3.07098e-65 8.06123e-65 2.09674e-64 5.40356e-64 1.37968e-63 3.48985e-63 8.74459e-63 2.17042e-62 5.3357e-62 1.29912e-61 3.13247e-61 7.47949e-61 1.76837e-60 4.13958e-60 9.5938e-60 2.20111e-59 4.99891e-59 1.12372e-58 2.50009e-58 5.5047e-58 1.19938e-57 2.58575e-57 5.51558e-57 1.16395e-56 2.42982e-56 5.0174e-56 1.02473e-55 2.06979e-55 4.13425e-55 8.1654e-55 1.59453e-54 3.07839e-54 5.87503e-54 1.10829e-53 2.06642e-53 3.80768e-53 6.93335e-53 1.24746e-52 2.21755e-52 3.89443e-52 6.75614e-52 1.15771e-51 1.95934e-51 3.27486e-51 5.40516e-51 8.80894e-51 1.41743e-50 2.2517e-50 3.53114e-50 5.46618e-50 8.35194e-50 1.2595e-49 1.8745e-49 2.75315e-49 3.99031e-49 5.70686e-49 8.05351e-49 1.12139e-48 1.54065e-48 2.08845e-48 2.79326e-48 3.68615e-48 4.79977e-48 6.16694e-48 7.81887e-48 9.78307e-48 1.2081e-47 1.47257e-47 1.77196e-47 2.10527e-47 2.47014e-47 2.86281e-47 3.27815e-47 3.70988e-47 4.15077e-47 4.593e-47 5.02855e-47 5.4496e-47 5.84898e-47 6.22044e-47 6.55899e-47 6.86106e-47 7.12453e-47 7.34869e-47 7.53412e-47 7.6824e-47 7.79593e-47 7.87756e-47 7.93043e-47 7.95766e-47 7.96228e-47 7.9471e-47 7.91471e-47 7.86755e-47 7.80791e-47 7.73812e-47 7.66058e-47 7.57783e-47 7.49261e-47 7.40778e-47 7.3263e-47 7.25109e-47 7.18487e-47 7.13003e-47 7.08846e-47 7.06144e-47 7.04952e-47 7.05251e-47 7.0695e-47 7.09892e-47 7.13867e-47 7.18629e-47 7.23909e-47 7.29437e-47 7.34958e-47 7.40246e-47 7.45113e-47 7.4942e-47 7.53077e-47 7.56044e-47 7.5833e-47 7.59982e-47 7.61083e-47 7.61738e-47 7.62073e-47 7.6222e-47 7.62312e-47 7.6248e-47 7.62842e-47 7.63505e-47 7.64556e-47 7.66065e-47 7.68083e-47 7.70639e-47 7.73744e-47 7.77389e-47 7.81547e-47 7.86174e-47 7.9121e-47 7.96582e-47 8.02202e-47 8.07969e-47 8.13774e-47 8.19497e-47 8.25009e-47 8.30179e-47 8.34876e-47 8.3897e-47 8.42342e-47 8.44886e-47 8.46513e-47 8.47159e-47 8.46785e-47 8.45376e-47 8.42942e-47 8.39512e-47 8.35131e-47 8.29846e-47 8.23704e-47 8.1674e-47 8.08971e-47 8.00388e-47 7.90954e-47 7.806e-47 7.69231e-47 7.56723e-47 7.42933e-47 7.27705e-47 7.10878e-47 6.92297e-47 6.71824e-47 6.49349e-47 6.24802e-47 5.98164e-47 5.69477e-47 5.38855e-47 5.06482e-47 4.72621e-47 4.37604e-47 4.01825e-47 3.65727e-47 3.29784e-47 2.94479e-47 2.60281e-47 2.27625e-47 1.96893e-47 1.68393e-47 1.42355e-47 1.18922e-47 9.81488e-48 8.00114e-48 6.44147e-48 5.12055e-48 4.01874e-48 3.11356e-48 2.38112e-48 1.79734e-48 1.33901e-48 9.84518e-49 7.144e-49 5.11601e-49 3.61573e-49 2.52197e-49 1.73608e-49 1.17952e-49 7.90959e-50 5.23529e-50 3.42047e-50 2.20604e-50 1.4046e-50 8.82928e-51 5.47981e-51 3.35818e-51 2.03223e-51 1.21452e-51 7.16864e-52 4.17928e-52 2.40677e-52 1.36922e-52 7.69584e-53 4.27384e-53 2.3453e-53 1.27184e-53 6.81649e-54 3.61094e-54 1.8908e-54 9.78752e-55 5.00851e-55 2.53321e-55 1.26493e-55 6.20247e-56 2.9132e-56 1.14943e-56 0 
0 1.80853e-74 6.2393e-74 1.96026e-73 6.06089e-73 1.85748e-72 5.64629e-72 1.7024e-71 5.09094e-71 1.5099e-70 4.44112e-70 1.29539e-69 3.74675e-69 1.07455e-68 3.05554e-68 8.61425e-68 2.40763e-67 6.67077e-67 1.83211e-66 4.98757e-66 1.34574e-65 3.59868e-65 9.53683e-65 2.50447e-64 6.51708e-64 1.68029e-63 4.2922e-63 1.08621e-62 2.72302e-62 6.76185e-62 1.66313e-61 4.05134e-61 9.77361e-61 2.33487e-60 5.52317e-60 1.2936e-59 2.99962e-59 6.88574e-59 1.56467e-58 3.5192e-58 7.83401e-58 1.72586e-57 3.76249e-57 8.11626e-57 1.73225e-56 3.65768e-56 7.64015e-56 1.57857e-55 3.2259e-55 6.5197e-55 1.30304e-54 2.57512e-54 5.03167e-54 9.71993e-54 1.85614e-53 3.50359e-53 6.53633e-53 1.20513e-52 2.19568e-52 3.95281e-52 7.03075e-52 1.23543e-51 2.14445e-51 3.67667e-51 6.22584e-51 1.04114e-50 1.71928e-50 2.80335e-50 4.51299e-50 7.17255e-50 1.12531e-49 1.7427e-49 2.66379e-49 4.01859e-49 5.98294e-49 8.79021e-49 1.27439e-48 1.82309e-48 2.57334e-48 3.5839e-48 4.92463e-48 6.67645e-48 8.93039e-48 1.17856e-47 1.53461e-47 1.97165e-47 2.49956e-47 3.12705e-47 3.86084e-47 4.70491e-47 5.65984e-47 6.72217e-47 7.88408e-47 9.13324e-47 1.0453e-46 1.18231e-46 1.32201e-46 1.46189e-46 1.59939e-46 1.732e-46 1.85746e-46 1.97379e-46 2.07945e-46 2.17332e-46 2.2548e-46 2.3237e-46 2.38028e-46 2.42509e-46 2.45895e-46 2.48283e-46 2.49773e-46 2.50471e-46 2.50473e-46 2.49871e-46 2.48745e-46 2.47173e-46 2.45227e-46 2.42977e-46 2.40498e-46 2.37867e-46 2.35168e-46 2.32489e-46 2.29921e-46 2.27554e-46 2.25472e-46 2.23748e-46 2.22442e-46 2.21593e-46 2.21216e-46 2.21307e-46 2.21836e-46 2.22753e-46 2.23994e-46 2.2548e-46 2.27127e-46 2.28852e-46 2.30573e-46 2.32221e-46 2.33737e-46 2.35078e-46 2.36215e-46 2.37136e-46 2.37844e-46 2.38354e-46 2.38691e-46 2.3889e-46 2.3899e-46 2.3903e-46 2.39055e-46 2.39103e-46 2.39213e-46 2.39417e-46 2.39743e-46 2.40212e-46 2.4084e-46 2.41638e-46 2.42606e-46 2.43744e-46 2.45042e-46 2.46487e-46 2.4806e-46 2.49739e-46 2.51495e-46 2.53297e-46 2.55112e-46 2.56901e-46 2.58625e-46 2.60243e-46 2.61712e-46 2.62994e-46 2.64051e-46 2.64849e-46 2.65362e-46 2.65569e-46 2.65458e-46 2.65025e-46 2.64274e-46 2.63214e-46 2.61859e-46 2.60227e-46 2.58332e-46 2.56186e-46 2.53795e-46 2.51157e-46 2.48262e-46 2.45088e-46 2.41606e-46 2.37777e-46 2.33555e-46 2.28889e-46 2.23729e-46 2.18021e-46 2.11721e-46 2.0479e-46 1.97203e-46 1.88948e-46 1.80037e-46 1.705e-46 1.60393e-46 1.49797e-46 1.38813e-46 1.27567e-46 1.16197e-46 1.04856e-46 9.36959e-47 8.28694e-47 7.25166e-47 6.27609e-47 5.37037e-47 4.54205e-47 3.7959e-47 3.13393e-47 2.55556e-47 2.05791e-47 1.63623e-47 1.28435e-47 9.95166e-48 7.61106e-48 5.74516e-48 4.28e-48 3.14671e-48 2.28313e-48 1.63479e-48 1.15518e-48 8.05574e-49 5.54415e-49 3.76577e-49 2.52451e-49 1.67043e-49 1.091e-49 7.0339e-50 4.47679e-50 2.81298e-50 1.74512e-50 1.06899e-50 6.46616e-51 3.86258e-51 2.27877e-51 1.32786e-51 7.64308e-52 4.34597e-52 2.44143e-52 1.35512e-52 7.43238e-53 4.02838e-53 2.15787e-53 1.14248e-53 5.97912e-54 3.09333e-54 1.58206e-54 7.99741e-55 3.99126e-55 1.95606e-55 9.18297e-56 3.62198e-56 0 
0 5.52573e-74 1.90679e-73 5.99248e-73 1.85337e-72 5.68179e-72 1.72768e-71 5.21078e-71 1.55878e-70 4.6247e-70 1.36075e-69 3.97046e-69 1.14882e-68 3.29596e-68 9.37581e-68 2.64427e-67 7.39346e-67 2.04931e-66 5.63069e-66 1.53349e-65 4.1394e-65 1.1074e-64 2.93601e-64 7.71374e-64 2.00817e-63 5.18003e-63 1.32383e-62 3.35177e-62 8.40668e-62 2.08859e-61 5.13964e-61 1.25265e-60 3.0235e-60 7.2268e-60 1.71042e-59 4.00821e-59 9.29938e-59 2.1359e-58 4.85619e-58 1.09286e-57 2.43419e-57 5.36573e-57 1.17045e-56 2.52633e-56 5.39517e-56 1.13988e-55 2.38242e-55 4.92543e-55 1.00716e-54 2.03677e-54 4.07322e-54 8.05466e-54 1.57482e-53 3.04404e-53 5.81654e-53 1.09859e-52 2.0508e-52 3.78344e-52 6.89742e-52 1.24246e-51 2.21124e-51 3.88783e-51 6.75234e-51 1.15835e-50 1.96257e-50 3.28376e-50 5.4255e-50 8.85103e-50 1.4256e-49 2.2668e-49 3.55804e-49 5.51256e-49 8.42968e-49 1.27219e-48 1.89475e-48 2.78473e-48 4.03851e-48 5.77891e-48 8.15905e-48 1.13655e-47 1.56199e-47 2.11791e-47 2.83316e-47 3.73915e-47 4.86879e-47 6.25508e-47 7.92918e-47 9.91833e-47 1.22434e-46 1.49164e-46 1.79386e-46 2.12981e-46 2.49692e-46 2.89118e-46 3.30725e-46 3.73856e-46 4.17766e-46 4.61653e-46 5.04701e-46 5.46122e-46 5.85197e-46 6.21312e-46 6.53987e-46 6.82889e-46 7.07838e-46 7.288e-46 7.45868e-46 7.59241e-46 7.69192e-46 7.7604e-46 7.80123e-46 7.81774e-46 7.8131e-46 7.79017e-46 7.75156e-46 7.69962e-46 7.63658e-46 7.56461e-46 7.48594e-46 7.40294e-46 7.31814e-46 7.23422e-46 7.15395e-46 7.08007e-46 7.01515e-46 6.96145e-46 6.92076e-46 6.89426e-46 6.88248e-46 6.88519e-46 6.9015e-46 6.92987e-46 6.96824e-46 7.01421e-46 7.06517e-46 7.1185e-46 7.17172e-46 7.22264e-46 7.26944e-46 7.31079e-46 7.34581e-46 7.37415e-46 7.39588e-46 7.41148e-46 7.42174e-46 7.42772e-46 7.43062e-46 7.43172e-46 7.43234e-46 7.43371e-46 7.437e-46 7.44322e-46 7.45322e-46 7.46769e-46 7.4871e-46 7.51174e-46 7.5417e-46 7.57691e-46 7.61709e-46 7.66183e-46 7.71055e-46 7.76253e-46 7.81693e-46 7.87279e-46 7.92902e-46 7.98448e-46 8.03793e-46 8.0881e-46 8.13371e-46 8.17351e-46 8.20634e-46 8.23118e-46 8.2472e-46 8.25376e-46 8.25051e-46 8.23734e-46 8.21436e-46 8.18191e-46 8.14044e-46 8.0905e-46 8.03257e-46 7.96706e-46 7.8942e-46 7.81395e-46 7.72599e-46 7.6297e-46 7.52415e-46 7.40813e-46 7.2802e-46 7.13876e-46 6.98212e-46 6.80861e-46 6.61669e-46 6.40506e-46 6.17278e-46 5.91943e-46 5.64517e-46 5.35086e-46 5.03814e-46 4.70943e-46 4.36789e-46 4.01738e-46 3.66228e-46 3.30736e-46 2.95751e-46 2.61755e-46 2.29198e-46 1.98479e-46 1.69925e-46 1.43783e-46 1.20213e-46 9.92844e-47 8.09862e-47 6.52322e-47 5.18761e-47 4.07261e-47 3.15596e-47 2.41383e-47 1.82209e-47 1.35737e-47 9.97889e-48 7.23951e-48 5.18296e-48 3.66176e-48 2.55301e-48 1.75661e-48 1.19282e-48 7.99411e-49 5.28784e-49 3.45242e-49 2.22501e-49 1.41557e-49 8.89098e-50 5.5134e-50 3.37577e-50 2.041e-50 1.21861e-50 7.18577e-51 4.1851e-51 2.40768e-51 1.36832e-51 7.6827e-52 4.262e-52 2.33628e-52 1.26558e-52 6.77548e-53 3.58526e-53 1.87528e-53 9.69636e-54 4.95635e-54 2.50405e-54 1.249e-54 6.11786e-55 2.87073e-55 1.13188e-55 0 
0 1.6745e-73 5.77971e-73 1.81693e-72 5.62119e-72 1.72381e-71 5.24335e-71 1.58195e-70 4.73394e-70 1.40499e-69 4.13544e-69 1.2071e-68 3.49393e-68 1.00279e-67 2.85367e-67 8.05143e-67 2.25211e-66 6.24494e-66 1.71658e-65 4.67699e-65 1.26303e-64 3.38044e-64 8.96646e-64 2.35683e-63 6.13853e-63 1.58418e-62 4.05056e-62 1.02605e-61 2.57476e-61 6.40011e-61 1.57576e-60 3.8425e-60 9.27954e-60 2.2192e-59 5.25524e-59 1.2322e-58 2.86041e-58 6.57359e-58 1.49544e-57 3.36737e-57 7.50477e-57 1.65528e-56 3.6129e-56 7.80293e-56 1.6674e-55 3.52503e-55 7.37211e-55 1.52507e-54 3.12044e-54 6.31443e-54 1.26359e-53 2.50029e-53 4.8916e-53 9.4612e-53 1.80899e-52 3.41887e-52 6.38623e-52 1.17891e-51 2.15056e-51 3.87629e-51 6.90296e-51 1.21442e-50 2.11044e-50 3.62254e-50 6.14112e-50 1.0281e-49 1.69958e-49 2.77413e-49 4.47046e-49 7.11188e-49 1.11683e-48 1.73112e-48 2.64832e-48 3.99842e-48 5.95733e-48 8.75856e-48 1.2706e-47 1.81868e-47 2.56838e-47 3.5785e-47 4.91891e-47 6.67047e-47 8.92404e-47 1.17784e-46 1.53369e-46 1.97029e-46 2.49739e-46 3.12345e-46 3.85489e-46 4.69535e-46 5.64493e-46 6.69967e-46 7.85117e-46 9.08654e-46 1.03886e-45 1.17364e-45 1.31063e-45 1.44729e-45 1.58103e-45 1.7094e-45 1.83014e-45 1.94135e-45 2.04155e-45 2.12975e-45 2.20544e-45 2.26858e-45 2.3195e-45 2.35891e-45 2.38771e-45 2.40695e-45 2.41774e-45 2.42114e-45 2.41816e-45 2.40971e-45 2.39662e-45 2.3796e-45 2.35933e-45 2.33646e-45 2.31168e-45 2.28569e-45 2.25924e-45 2.23315e-45 2.20825e-45 2.18536e-45 2.16528e-45 2.14868e-45 2.13609e-45 2.1279e-45 2.12424e-45 2.12504e-45 2.13003e-45 2.13873e-45 2.1505e-45 2.16461e-45 2.18024e-45 2.1966e-45 2.21292e-45 2.22852e-45 2.24286e-45 2.25551e-45 2.26621e-45 2.27486e-45 2.28147e-45 2.2862e-45 2.28929e-45 2.29107e-45 2.29191e-45 2.2922e-45 2.29234e-45 2.29272e-45 2.2937e-45 2.29558e-45 2.29862e-45 2.30305e-45 2.30899e-45 2.31655e-45 2.32574e-45 2.33655e-45 2.34889e-45 2.36263e-45 2.3776e-45 2.39357e-45 2.41029e-45 2.42745e-45 2.44474e-45 2.4618e-45 2.47824e-45 2.49367e-45 2.50771e-45 2.51997e-45 2.53009e-45 2.53776e-45 2.54272e-45 2.54479e-45 2.54385e-45 2.53988e-45 2.53291e-45 2.52306e-45 2.51048e-45 2.49533e-45 2.47778e-45 2.45797e-45 2.43596e-45 2.41177e-45 2.38531e-45 2.35638e-45 2.3247e-45 2.2899e-45 2.25152e-45 2.20906e-45 2.16199e-45 2.10975e-45 2.05184e-45 1.98783e-45 1.91737e-45 1.8403e-45 1.75663e-45 1.66658e-45 1.57063e-45 1.46949e-45 1.36414e-45 1.25576e-45 1.14572e-45 1.03551e-45 9.26671e-46 8.20727e-46 7.19112e-46 6.23098e-46 5.33743e-46 4.51847e-46 3.77936e-46 3.12255e-46 2.54786e-46 2.05276e-46 1.6328e-46 1.28205e-46 9.93596e-47 7.59994e-47 5.73692e-47 4.27362e-47 3.14157e-47 2.2789e-47 1.63128e-47 1.15229e-47 8.03208e-48 5.52513e-48 3.75077e-48 2.51292e-48 1.66165e-48 1.0845e-48 6.98666e-49 4.44315e-49 2.78949e-49 1.72902e-49 1.05816e-49 6.3946e-50 3.81611e-50 2.2491e-50 1.30923e-50 7.52795e-51 4.27595e-51 2.39949e-51 1.33039e-51 7.28862e-52 3.94604e-52 2.11137e-52 1.11659e-52 5.837e-53 3.01635e-53 1.54093e-53 7.78056e-54 3.87865e-54 1.8988e-54 8.90548e-55 3.51e-55 0 
0 5.03293e-73 1.73761e-72 5.46404e-72 1.69099e-71 5.18735e-71 1.57837e-70 4.76368e-70 1.42601e-69 4.23378e-69 1.24662e-68 3.64013e-68 1.05403e-67 3.02633e-67 8.61554e-67 2.43179e-66 6.80489e-66 1.88774e-65 5.19114e-65 1.415e-64 3.82292e-64 1.02365e-63 2.71644e-63 7.1435e-63 1.86147e-62 4.80625e-62 1.22951e-61 3.11606e-61 7.82342e-61 1.94569e-60 4.79298e-60 1.1694e-59 2.82561e-59 6.76119e-59 1.602e-58 3.75837e-58 8.72967e-58 2.00736e-57 4.56928e-57 1.02951e-56 2.29584e-56 5.06688e-56 1.10661e-55 2.39148e-55 5.11354e-55 1.08174e-54 2.26375e-54 4.68602e-54 9.59427e-54 1.94273e-53 3.89016e-53 7.70258e-53 1.50793e-52 2.9185e-52 5.58386e-52 1.056e-51 1.97382e-51 3.64606e-51 6.65539e-51 1.20037e-50 2.13898e-50 3.76539e-50 6.54759e-50 1.12456e-49 1.90754e-49 3.19531e-49 5.28522e-49 8.63147e-49 1.39169e-48 2.21511e-48 3.48024e-48 5.39699e-48 8.26015e-48 1.24763e-47 1.8596e-47 2.735e-47 3.96895e-47 5.68267e-47 8.02728e-47 1.11868e-46 1.53799e-46 2.08595e-46 2.79096e-46 3.68384e-46 4.79685e-46 6.16214e-46 7.80995e-46 9.76639e-46 1.20511e-45 1.46748e-45 1.76371e-45 2.09247e-45 2.45106e-45 2.83534e-45 3.23983e-45 3.65792e-45 4.08212e-45 4.50446e-45 4.91685e-45 5.31159e-45 5.6817e-45 6.02135e-45 6.32605e-45 6.59284e-45 6.82031e-45 7.00851e-45 7.15874e-45 7.27333e-45 7.35529e-45 7.40805e-45 7.43515e-45 7.44005e-45 7.42592e-45 7.39563e-45 7.3517e-45 7.29636e-45 7.23165e-45 7.15955e-45 7.08203e-45 7.00121e-45 6.91935e-45 6.83883e-45 6.76217e-45 6.69183e-45 6.63017e-45 6.57922e-45 6.54063e-45 6.51546e-45 6.50417e-45 6.50653e-45 6.52167e-45 6.54812e-45 6.58395e-45 6.62689e-45 6.67448e-45 6.72425e-45 6.77388e-45 6.82131e-45 6.86485e-45 6.90324e-45 6.93568e-45 6.96184e-45 6.9818e-45 6.99602e-45 7.00526e-45 7.01049e-45 7.01287e-45 7.0136e-45 7.01389e-45 7.01493e-45 7.01779e-45 7.02343e-45 7.03264e-45 7.04605e-45 7.06411e-45 7.08709e-45 7.11507e-45 7.14798e-45 7.18557e-45 7.22743e-45 7.27304e-45 7.32173e-45 7.37269e-45 7.42504e-45 7.47777e-45 7.52979e-45 7.57995e-45 7.62707e-45 7.66993e-45 7.70738e-45 7.73833e-45 7.76183e-45 7.77709e-45 7.78355e-45 7.78089e-45 7.76902e-45 7.74809e-45 7.71845e-45 7.68058e-45 7.63504e-45 7.58235e-45 7.52296e-45 7.45714e-45 7.38492e-45 7.30605e-45 7.21999e-45 7.12586e-45 7.02253e-45 6.90859e-45 6.78244e-45 6.64238e-45 6.48667e-45 6.31364e-45 6.12184e-45 5.91011e-45 5.67779e-45 5.42475e-45 5.15159e-45 4.85963e-45 4.55102e-45 4.22866e-45 3.89621e-45 3.55786e-45 3.21825e-45 2.88222e-45 2.55454e-45 2.23975e-45 1.94189e-45 1.66433e-45 1.40966e-45 1.17958e-45 9.7495e-46 7.95768e-46 6.41304e-46 5.10211e-46 4.00673e-46 3.10556e-46 2.37556e-46 1.79324e-46 1.3358e-46 9.81882e-47 7.12175e-47 5.09709e-47 3.59974e-47 2.50865e-47 1.72521e-47 1.17083e-47 7.84174e-48 5.1835e-48 3.38181e-48 2.17779e-48 1.38438e-48 8.68757e-49 5.38238e-49 3.29245e-49 1.98868e-49 1.18618e-49 6.98736e-50 4.06525e-50 2.33621e-50 1.32625e-50 7.43822e-51 4.12172e-51 2.25681e-51 1.22112e-51 6.5299e-52 3.45128e-52 1.80309e-52 9.31214e-53 4.75435e-53 2.39918e-53 1.1953e-53 5.8483e-54 2.74149e-54 1.08012e-54 0 
0 1.5003e-72 5.18106e-72 1.62973e-71 5.04527e-71 1.54822e-70 4.71243e-70 1.42275e-69 4.26053e-69 1.2654e-68 3.7273e-68 1.08879e-67 3.15389e-67 9.05903e-67 2.58002e-66 7.28527e-66 2.0395e-65 5.66019e-65 1.55719e-64 4.24647e-64 1.1478e-63 3.07485e-63 8.16351e-63 2.14781e-62 5.59956e-62 1.44651e-61 3.70227e-61 9.38784e-61 2.35822e-60 5.86803e-60 1.44631e-59 3.53066e-59 8.53589e-59 2.04365e-58 4.84503e-58 1.13733e-57 2.64327e-57 6.08177e-57 1.38521e-56 3.12297e-56 6.96862e-56 1.53893e-55 3.36317e-55 7.27278e-55 1.55609e-54 3.29396e-54 6.89779e-54 1.42881e-53 2.92732e-53 5.93144e-53 1.18852e-52 2.35487e-52 4.61321e-52 8.9346e-52 1.71057e-51 3.23715e-51 6.05475e-51 1.11918e-50 2.04427e-50 3.68947e-50 6.57865e-50 1.15882e-49 2.01634e-49 3.46524e-49 5.8815e-49 9.85794e-49 1.6315e-48 2.66597e-48 4.30079e-48 6.84905e-48 1.07663e-47 1.67038e-47 2.55771e-47 3.86489e-47 5.76294e-47 8.47899e-47 1.23086e-46 1.76287e-46 2.49088e-46 3.4721e-46 4.77445e-46 6.47648e-46 8.66629e-46 1.14395e-45 1.48959e-45 1.91349e-45 2.42495e-45 3.03198e-45 3.74051e-45 4.55369e-45 5.47117e-45 6.48858e-45 7.59717e-45 8.78381e-45 1.00312e-44 1.13186e-44 1.26224e-44 1.39178e-44 1.51796e-44 1.6384e-44 1.75095e-44 1.85383e-44 1.94569e-44 2.02566e-44 2.09337e-44 2.14888e-44 2.19267e-44 2.22551e-44 2.24839e-44 2.26243e-44 2.26876e-44 2.26847e-44 2.26256e-44 2.25193e-44 2.23735e-44 2.21951e-44 2.199e-44 2.17642e-44 2.15235e-44 2.1274e-44 2.10225e-44 2.07759e-44 2.05417e-44 2.03271e-44 2.01393e-44 1.99842e-44 1.98667e-44 1.97901e-44 1.97555e-44 1.97623e-44 1.98079e-44 1.98877e-44 1.99958e-44 2.01255e-44 2.02691e-44 2.04193e-44 2.05691e-44 2.07121e-44 2.08432e-44 2.09588e-44 2.10563e-44 2.11348e-44 2.11945e-44 2.12369e-44 2.12642e-44 2.12795e-44 2.12861e-44 2.12879e-44 2.12883e-44 2.12911e-44 2.12994e-44 2.13161e-44 2.13437e-44 2.13841e-44 2.14385e-44 2.15078e-44 2.15923e-44 2.16917e-44 2.18053e-44 2.19318e-44 2.20697e-44 2.22169e-44 2.2371e-44 2.25293e-44 2.26888e-44 2.28462e-44 2.29981e-44 2.31407e-44 2.32706e-44 2.33841e-44 2.3478e-44 2.35494e-44 2.35959e-44 2.3616e-44 2.36085e-44 2.35734e-44 2.3511e-44 2.34226e-44 2.33097e-44 2.3174e-44 2.30173e-44 2.28409e-44 2.26459e-44 2.24324e-44 2.21997e-44 2.19462e-44 2.16694e-44 2.13658e-44 2.10311e-44 2.06602e-44 2.02478e-44 1.97884e-44 1.92766e-44 1.87075e-44 1.80772e-44 1.73833e-44 1.66249e-44 1.58034e-44 1.49226e-44 1.39887e-44 1.30103e-44 1.19986e-44 1.09664e-44 9.92805e-45 8.89849e-45 7.89268e-45 6.92483e-45 6.00766e-45 5.15188e-45 4.36574e-45 3.65481e-45 3.02194e-45 2.46735e-45 1.98895e-45 1.58271e-45 1.24312e-45 9.63625e-46 7.37154e-46 5.56462e-46 4.14497e-46 3.04652e-46 2.20942e-46 1.58104e-46 1.11636e-46 7.77807e-47 5.34758e-47 3.62809e-47 2.42915e-47 1.60513e-47 1.04681e-47 6.73843e-48 4.28164e-48 2.68569e-48 1.66313e-48 1.01685e-48 6.13881e-49 3.65968e-49 2.15462e-49 1.25287e-49 7.19595e-50 4.08277e-50 2.28847e-50 1.26736e-50 6.9352e-51 3.75026e-51 2.00423e-51 1.05866e-51 5.52751e-52 2.85297e-52 1.4557e-52 7.3414e-53 3.65537e-53 1.78744e-53 8.37455e-54 3.29823e-54 0 
0 4.43536e-72 1.53209e-71 4.82079e-71 1.4929e-70 4.58276e-70 1.39537e-69 4.21433e-69 1.26247e-68 3.75099e-68 1.1053e-67 3.22994e-67 9.3599e-67 2.68956e-66 7.66307e-66 2.16475e-65 6.0628e-65 1.68334e-64 4.63315e-64 1.26404e-63 3.41822e-63 9.16146e-63 2.43348e-62 6.40562e-62 1.67085e-61 4.31842e-61 1.10585e-60 2.8056e-60 7.05142e-60 1.75559e-59 4.32944e-59 1.05748e-58 2.55808e-58 6.12809e-58 1.45369e-57 3.41445e-57 7.94037e-57 1.82808e-56 4.16633e-56 9.39892e-56 2.09862e-55 4.63754e-55 1.01415e-54 2.19451e-54 4.69852e-54 9.95255e-54 2.08554e-53 4.32292e-53 8.86279e-53 1.79704e-52 3.60332e-52 7.14437e-52 1.40056e-51 2.7144e-51 5.20044e-51 9.84827e-51 1.84328e-50 3.40953e-50 6.23198e-50 1.1255e-49 2.0082e-49 3.53976e-49 6.16314e-49 1.05986e-48 1.80001e-48 3.01884e-48 4.99921e-48 8.17373e-48 1.31934e-47 2.1022e-47 3.30625e-47 5.13219e-47 7.86218e-47 1.18856e-46 1.77301e-46 2.60962e-46 3.78962e-46 5.4293e-46 7.67358e-46 1.0699e-45 1.4715e-45 1.99638e-45 2.6717e-45 3.52687e-45 4.59257e-45 5.89928e-45 7.47545e-45 9.34537e-45 1.15269e-44 1.40291e-44 1.68503e-44 1.9976e-44 2.33783e-44 2.70159e-44 3.08345e-44 3.4769e-44 3.87465e-44 4.26896e-44 4.65208e-44 5.01667e-44 5.35618e-44 5.66521e-44 5.93975e-44 6.17728e-44 6.3768e-44 6.53875e-44 6.66476e-44 6.75741e-44 6.81993e-44 6.85586e-44 6.86882e-44 6.86226e-44 6.8393e-44 6.80271e-44 6.75485e-44 6.69776e-44 6.63326e-44 6.56305e-44 6.48883e-44 6.4124e-44 6.33567e-44 6.26072e-44 6.18971e-44 6.12478e-44 6.068e-44 6.02116e-44 5.98568e-44 5.96251e-44 5.95201e-44 5.95397e-44 5.96756e-44 5.99143e-44 6.02381e-44 6.06263e-44 6.10564e-44 6.1506e-44 6.19539e-44 6.23815e-44 6.27734e-44 6.31183e-44 6.3409e-44 6.36426e-44 6.38198e-44 6.3945e-44 6.40251e-44 6.40691e-44 6.40875e-44 6.40911e-44 6.40911e-44 6.40981e-44 6.4122e-44 6.41714e-44 6.42534e-44 6.43737e-44 6.45364e-44 6.47438e-44 6.49968e-44 6.52946e-44 6.56349e-44 6.60142e-44 6.64276e-44 6.6869e-44 6.73313e-44 6.78063e-44 6.8285e-44 6.87575e-44 6.92133e-44 6.96417e-44 7.00318e-44 7.0373e-44 7.06556e-44 7.08708e-44 7.10118e-44 7.10734e-44 7.10529e-44 7.09499e-44 7.0766e-44 7.05047e-44 7.0171e-44 6.97704e-44 6.93084e-44 6.87897e-44 6.82173e-44 6.75922e-44 6.69127e-44 6.61742e-44 6.53691e-44 6.44867e-44 6.35139e-44 6.24354e-44 6.12343e-44 5.98931e-44 5.83945e-44 5.67227e-44 5.48647e-44 5.28114e-44 5.0559e-44 4.81105e-44 4.54758e-44 4.26731e-44 3.97281e-44 3.66739e-44 3.35499e-44 3.03997e-44 2.72695e-44 2.42057e-44 2.12523e-44 1.84494e-44 1.58304e-44 1.34217e-44 1.12412e-44 9.2983e-45 7.59438e-45 6.12356e-45 4.87388e-45 3.82872e-45 2.96822e-45 2.27075e-45 1.71415e-45 1.27678e-45 9.38347e-46 6.80428e-46 4.86826e-46 3.43673e-46 2.3939e-46 1.6454e-46 1.11598e-46 7.46941e-47 4.93379e-47 3.21639e-47 2.06955e-47 1.31442e-47 8.24095e-48 5.10079e-48 3.11709e-48 1.88083e-48 1.12066e-48 6.59422e-49 3.83225e-49 2.19981e-49 1.24738e-49 6.98763e-50 3.86743e-50 2.11503e-50 1.14302e-50 6.10478e-51 3.22262e-51 1.68155e-51 8.67368e-52 4.4229e-52 2.22916e-52 1.10924e-52 5.42083e-53 2.53842e-53 9.99334e-54 0 