# vtk DataFile Version 3.0
Gray-Scott Simulation Output
ASCII
DATASET STRUCTURED_POINTS
DIMENSIONS 256 256 1
SPACING 1.0 1.0 1.0
ORIGIN 0 0 0
POINT_DATA 65536
SCALARS u double
LOOKUP_TABLE default
0 0 0 0 0 0 0 0 0 0 0 0 0 0 0 0 0 0 0 0 0 0 0 0 0 0 0 0 0 0 0 0 0 0 0 0 0 0 0 0 0 0 0 0 0 0 0 0 0 0 0 0 0 0 0 0 0 0 0 0 0 0 0 0 0 0 0 0 0 0 0 0 0 0 0 0 0 0 0 0 0 0 0 0 0 0 0 0 0 0 0 0 0 0 0 0 0 0 0 0 0 0 0 0 0 0 0 0 0 0 0 0 0 0 0 0 0 0 0 0 0 0 0 0 0 0 0 0 0 0 0 0 0 0 0 0 0 0 0 0 0 0 0 0 0 0 0 0 0 0 0 0 0 0 0 0 0 0 0 0 0 0 0 0 0 0 0 0 0 0 0 0 0 0 0 0 0 0 0 0 0 0 0 0 0 0 0 0 0 0 0 0 0 0 0 0 0 0 0 0 0 0 0 0 0 0 0 0 0 0 0 0 0 0 0 0 0 0 0 0 0 0 0 0 0 0 0 0 0 0 0 0 0 0 0 0 0 0 0 0 0 0 0 0 0 0 0 0 0 0 0 0 0 0 0 0 
0 8.31494e-191 1.92059e-189 4.37938e-188 9.87497e-187 2.20171e-185 4.85335e-184 1.05762e-182 2.27816e-181 4.85007e-180 1.02041e-178 2.12137e-177 4.35729e-176 8.84146e-175 1.77209e-173 3.50786e-172 6.85709e-171 1.32349e-169 2.52187e-168 4.74336e-167 8.80541e-166 1.61305e-164 2.91552e-163 5.19859e-162 9.14301e-161 1.58583e-159 2.71214e-158 4.57282e-157 7.59969e-156 1.24471e-154 2.00873e-153 3.19354e-152 5.00076e-151 7.71124e-150 1.1707e-148 1.74949e-147 2.57291e-146 3.72294e-145 5.29899e-144 7.41727e-143 1.02078e-141 1.38083e-140 1.83553e-139 2.39702e-138 3.07433e-137 3.87144e-136 4.78526e-135 5.80383e-134 6.90494e-133 8.05555e-132 9.21236e-131 1.03236e-129 1.13321e-128 1.21799e-127 1.28132e-126 1.31876e-125 1.32734e-124 1.30589e-123 1.25526e-122 1.17829e-121 1.07953e-120 9.64822e-120 8.40711e-119 7.13799e-118 5.90156e-117 4.74829e-116 3.71529e-115 2.82501e-114 2.08591e-113 1.49442e-112 1.03798e-111 6.98337e-111 4.54665e-110 2.86182e-109 1.73966e-108 1.02017e-107 5.76453e-107 3.13466e-106 1.63823e-105 8.21679e-105 3.94925e-104 1.81598e-103 7.97522e-103 3.33892e-102 1.32998e-101 5.02966e-101 1.80181e-100 6.09968e-100 1.94633e-99 5.83786e-99 1.64123e-98 4.31177e-98 1.05528e-97 2.39848e-97 5.04688e-97 9.80331e-97 1.7535e-96 2.88298e-96 4.35394e-96 6.04559e-96 7.74342e-96 9.20797e-96 1.02726e-95 1.09141e-95 1.12496e-95 1.14621e-95 1.16994e-95 1.20063e-95 1.23266e-95 1.25679e-95 1.26818e-95 1.2704e-95 1.27272e-95 1.28383e-95 1.30678e-95 1.33806e-95 1.36962e-95 1.39181e-95 1.39553e-95 1.37305e-95 1.31834e-95 1.22827e-95 1.10544e-95 9.61092e-96 8.15135e-96 6.91954e-96 6.13273e-96 5.9137e-96 6.25763e-96 7.04514e-96 8.09016e-96 9.19661e-96 1.01998e-95 1.09872e-95 1.15087e-95 1.17822e-95 1.18858e-95 1.19251e-95 1.19862e-95 1.21011e-95 1.22451e-95 1.23611e-95 1.23911e-95 1.22996e-95 1.20836e-95 1.17766e-95 1.14412e-95 1.11477e-95 1.09465e-95 1.08528e-95 1.08502e-95 1.09027e-95 1.09654e-95 1.09963e-95 1.09733e-95 1.09107e-95 1.08599e-95 1.08907e-95 1.10656e-95 1.14176e-95 1.19339e-95 1.25447e-95 1.31308e-95 1.35605e-95 1.37422e-95 1.36613e-95 1.33875e-95 1.30604e-95 1.28641e-95 1.29786e-95 1.35072e-95 1.44088e-95 1.54835e-95 1.64312e-95 1.69583e-95 1.68817e-95 1.61942e-95 1.50678e-95 1.37928e-95 1.26696e-95 1.18995e-95 1.15345e-95 1.1512e-95 1.17342e-95 1.21238e-95 1.26141e-95 1.31036e-95 1.34365e-95 1.34421e-95 1.30114e-95 1.21546e-95 1.10023e-95 9.75493e-96 8.60841e-96 7.69173e-96 7.03172e-96 6.5535e-96 6.11723e-96 5.58163e-96 4.86766e-96 3.99024e-96 3.04227e-96 2.1446e-96 1.39398e-96 8.34919e-97 4.61118e-97 2.35202e-97 1.11036e-97 4.86374e-98 1.98211e-98 7.53623e-99 2.68079e-99 8.94647e-100 2.80852e-100 8.31478e-101 2.32718e-101 6.17185e-102 1.55436e-102 3.72501e-103 8.51096e-104 1.85733e-104 3.87789e-105 7.7587e-106 1.48976e-106 2.7491e-107 4.88183e-108 8.3528e-109 1.37863e-109 2.19739e-110 3.38583e-111 5.04833e-112 7.29052e-113 1.02066e-113 1.38637e-114 1.8285e-115 2.34347e-116 2.92065e-117 3.54203e-118 4.18275e-119 4.81256e-120 5.39824e-121 5.90657e-122 6.30755e-123 6.57738e-124 6.70081e-125 6.67251e-126 6.49737e-127 6.1896e-128 5.77094e-129 5.26823e-130 4.71071e-131 4.12738e-132 3.54475e-133 2.98505e-134 2.45e-135 0 
0 1.92002e-189 4.4306e-188 1.0093e-186 2.27366e-185 5.06445e-184 1.11531e-182 2.42812e-181 5.22523e-180 1.11136e-178 2.33597e-177 4.85169e-176 9.95589e-175 2.01825e-173 4.04131e-172 7.99223e-171 1.56083e-169 3.00971e-168 5.7295e-167 1.07664e-165 1.99676e-164 3.65441e-163 6.59899e-162 1.17555e-160 2.06557e-159 3.57932e-158 6.11578e-157 1.0302e-155 1.71052e-154 2.79898e-153 4.51286e-152 7.16806e-151 1.12141e-149 1.72764e-148 2.62046e-147 3.91242e-146 5.74859e-145 8.31047e-144 1.18178e-142 1.6527e-141 2.27241e-140 3.07117e-139 4.0788e-138 5.32172e-137 6.81932e-136 8.57973e-135 1.05954e-133 1.28393e-132 1.52616e-131 1.77889e-130 2.03255e-129 2.27571e-128 2.49583e-127 2.6802e-126 2.81709e-125 2.89687e-124 2.91318e-123 2.86362e-122 2.75023e-121 2.57936e-120 2.36114e-119 2.10845e-118 1.83567e-117 1.55724e-116 1.28641e-115 1.03415e-114 8.08493e-114 6.14247e-113 4.53167e-112 3.24398e-111 2.25133e-110 1.51342e-109 9.84543e-109 6.19207e-108 3.76106e-107 2.20383e-106 1.2443e-105 6.76106e-105 3.53073e-104 1.76954e-103 8.49856e-103 3.90498e-102 1.71369e-101 7.16936e-101 2.85371e-100 1.07846e-99 3.86079e-99 1.30613e-98 4.16501e-98 1.24848e-97 3.50782e-97 9.21036e-97 2.25296e-96 5.11804e-96 1.07644e-95 2.09006e-95 3.73708e-95 6.14237e-95 9.27408e-95 1.28751e-94 1.6489e-94 1.96068e-94 2.1874e-94 2.32408e-94 2.39564e-94 2.44094e-94 2.49141e-94 2.55664e-94 2.62473e-94 2.67605e-94 2.70037e-94 2.70525e-94 2.71039e-94 2.7342e-94 2.78318e-94 2.84983e-94 2.91704e-94 2.96428e-94 2.97217e-94 2.92428e-94 2.80774e-94 2.61591e-94 2.35437e-94 2.04707e-94 1.73638e-94 1.4742e-94 1.30675e-94 1.26015e-94 1.33337e-94 1.501e-94 1.72345e-94 1.95899e-94 2.17256e-94 2.34023e-94 2.45132e-94 2.50967e-94 2.53186e-94 2.5403e-94 2.5533e-94 2.57768e-94 2.60818e-94 2.63266e-94 2.63888e-94 2.61926e-94 2.57325e-94 2.50794e-94 2.43666e-94 2.37435e-94 2.3317e-94 2.31191e-94 2.31145e-94 2.32266e-94 2.33597e-94 2.34245e-94 2.33748e-94 2.32412e-94 2.31327e-94 2.31981e-94 2.35703e-94 2.43191e-94 2.54171e-94 2.67159e-94 2.79623e-94 2.88763e-94 2.92631e-94 2.90921e-94 2.8511e-94 2.78171e-94 2.74014e-94 2.76466e-94 2.87717e-94 3.06891e-94 3.29737e-94 3.49879e-94 3.61076e-94 3.59442e-94 3.44822e-94 3.20871e-94 2.93762e-94 2.69876e-94 2.5349e-94 2.45717e-94 2.45226e-94 2.49947e-94 2.58231e-94 2.68658e-94 2.79068e-94 2.86141e-94 2.86254e-94 2.77086e-94 2.58848e-94 2.3432e-94 2.07757e-94 1.83332e-94 1.63792e-94 1.49714e-94 1.39509e-94 1.30207e-94 1.18801e-94 1.03607e-94 8.49394e-95 6.47697e-95 4.56671e-95 2.96905e-95 1.77881e-95 9.82742e-96 5.01453e-96 2.36828e-96 1.03785e-96 4.23161e-97 1.60975e-97 5.72941e-98 1.91316e-98 6.00955e-99 1.78029e-99 4.98602e-100 1.32322e-100 3.33479e-101 7.99746e-102 1.82859e-102 3.99343e-103 8.34404e-104 1.6707e-104 3.2104e-105 5.92884e-106 1.05366e-106 1.80424e-107 2.98028e-108 4.7541e-109 7.33126e-110 1.094e-110 1.58119e-111 2.21548e-112 3.01181e-113 3.97566e-114 5.09963e-115 6.36102e-116 7.72094e-117 9.12538e-118 1.05084e-118 1.17975e-119 1.29196e-120 1.38086e-121 1.44119e-122 1.46952e-123 1.4646e-124 1.42742e-125 1.361e-126 1.27007e-127 1.16047e-128 1.03858e-129 9.10788e-131 7.82919e-132 6.59894e-133 5.42093e-134 0 
0 4.37672e-188 1.00899e-186 2.29628e-185 5.16786e-184 1.15e-182 2.53014e-181 5.503e-180 1.18309e-178 2.51392e-177 5.27896e-176 1.09537e-174 2.24559e-173 4.54791e-172 9.09801e-171 1.79754e-169 3.50715e-168 6.75635e-167 1.28497e-165 2.41234e-164 4.46976e-163 8.17271e-162 1.47441e-160 2.62407e-159 4.60644e-158 7.97482e-157 1.36134e-155 2.29103e-154 3.80046e-153 6.21303e-152 1.00081e-150 1.58819e-149 2.48235e-148 3.82078e-147 5.78998e-146 8.63667e-145 1.26784e-143 1.83118e-142 2.60164e-141 3.63504e-140 4.99352e-139 6.74265e-138 8.94676e-137 1.16625e-135 1.49311e-134 1.87687e-133 2.31574e-132 2.80365e-131 3.32963e-130 3.87757e-129 4.42655e-128 4.95173e-127 5.42591e-126 5.82162e-125 6.11358e-124 6.28124e-123 6.3111e-122 6.19835e-121 5.94776e-120 5.57342e-119 5.09752e-118 4.54809e-117 3.9563e-116 3.35337e-115 2.76782e-114 2.2232e-113 1.73662e-112 1.31829e-111 9.71774e-111 6.95067e-110 4.81983e-109 3.23741e-108 2.10437e-107 1.32243e-106 8.02603e-106 4.6992e-105 2.65113e-104 1.4394e-103 7.51096e-103 3.76149e-102 1.80517e-101 8.28834e-101 3.63464e-100 1.51949e-99 6.04391e-99 2.28248e-98 8.16557e-98 2.76063e-97 8.79746e-97 2.63544e-96 7.40029e-96 1.94196e-95 4.7477e-95 1.07799e-94 2.26622e-94 4.39835e-94 7.86149e-94 1.29174e-93 1.94986e-93 2.70649e-93 3.4658e-93 4.12092e-93 4.59747e-93 4.88495e-93 5.03558e-93 5.13091e-93 5.23689e-93 5.37371e-93 5.51655e-93 5.6243e-93 5.67557e-93 5.68616e-93 5.69739e-93 5.74778e-93 5.85095e-93 5.99112e-93 6.13239e-93 6.23165e-93 6.24818e-93 6.14745e-93 5.90243e-93 5.49918e-93 4.94952e-93 4.30376e-93 3.65097e-93 3.10017e-93 2.74842e-93 2.65057e-93 2.80444e-93 3.15665e-93 3.62404e-93 4.11895e-93 4.56775e-93 4.92015e-93 5.15377e-93 5.27662e-93 5.3235e-93 5.34142e-93 5.36872e-93 5.41974e-93 5.48348e-93 5.53453e-93 5.54722e-93 5.50573e-93 5.40893e-93 5.27181e-93 5.1223e-93 4.99173e-93 4.90251e-93 4.86125e-93 4.86049e-93 4.88409e-93 4.91198e-93 4.92545e-93 4.91484e-93 4.88666e-93 4.86381e-93 4.87753e-93 4.95567e-93 5.11289e-93 5.34338e-93 5.616e-93 5.8776e-93 6.06947e-93 6.15077e-93 6.11508e-93 5.99339e-93 5.84808e-93 5.76121e-93 5.81301e-93 6.04938e-93 6.45186e-93 6.93122e-93 7.35376e-93 7.58854e-93 7.55411e-93 7.24722e-93 6.74457e-93 6.17564e-93 5.67426e-93 5.33015e-93 5.16675e-93 5.15623e-93 5.25519e-93 5.42906e-93 5.64794e-93 5.86641e-93 6.0148e-93 6.01702e-93 5.82436e-93 5.4412e-93 4.92582e-93 4.36751e-93 3.85389e-93 3.44276e-93 3.14635e-93 2.93142e-93 2.73564e-93 2.49589e-93 2.17674e-93 1.7847e-93 1.3611e-93 9.59859e-94 6.24203e-94 3.74077e-94 2.06734e-94 1.05527e-94 4.98593e-95 2.18596e-95 8.91716e-96 3.39396e-96 1.20864e-96 4.03825e-97 1.26925e-97 3.76246e-98 1.05443e-98 2.8002e-99 7.06197e-100 1.69479e-100 3.87787e-101 8.47504e-102 1.77213e-102 3.55096e-103 6.82873e-104 1.26208e-104 2.24471e-105 3.84679e-106 6.35928e-107 1.01524e-107 1.56687e-108 2.34005e-109 3.38496e-110 4.74676e-111 6.45832e-112 8.53228e-113 1.09537e-113 1.36747e-114 1.66124e-115 1.9651e-116 2.26488e-117 2.5449e-118 2.78938e-119 2.98393e-120 3.11701e-121 3.18107e-122 3.17321e-123 3.09538e-124 2.95397e-125 2.75906e-126 2.5232e-127 2.26021e-128 1.98387e-129 1.70688e-130 1.43996e-131 1.18396e-132 0 
0 9.86585e-187 2.27224e-185 5.16623e-184 1.16155e-182 2.58232e-181 5.67593e-180 1.23332e-178 2.64897e-177 5.62334e-176 1.17971e-174 2.44553e-173 5.00877e-172 1.01344e-170 2.02544e-169 3.99798e-168 7.79299e-167 1.49986e-165 2.84986e-164 5.34514e-163 9.89453e-162 1.80746e-160 3.25772e-159 5.79246e-158 1.01589e-156 1.75711e-155 2.99668e-154 5.03849e-153 8.35029e-152 1.36385e-150 2.1949e-149 3.47986e-148 5.43405e-147 8.35627e-146 1.26514e-144 1.88543e-143 2.76523e-142 3.99027e-141 5.664e-140 7.90659e-139 1.08516e-137 1.46394e-136 1.94074e-135 2.52758e-134 3.23305e-133 4.06037e-132 5.00533e-131 6.05452e-130 7.18397e-129 8.35879e-128 9.53378e-127 1.06555e-125 1.16656e-124 1.25054e-123 1.31211e-122 1.34692e-121 1.35214e-120 1.32684e-119 1.27209e-118 1.19101e-117 1.08838e-116 9.7024e-116 8.43275e-115 7.14157e-114 5.88958e-113 4.72672e-112 3.68913e-111 2.79813e-110 2.06093e-109 1.47288e-108 1.02051e-107 6.84906e-107 4.4484e-106 2.79323e-105 1.69391e-104 9.90989e-104 5.58645e-103 3.03074e-102 1.58027e-101 7.90796e-101 3.79224e-100 1.7399e-99 7.62429e-99 3.1851e-98 1.26601e-97 4.77777e-97 1.70809e-96 5.77091e-96 1.83787e-95 5.50228e-95 1.54412e-94 4.04972e-94 9.89544e-94 2.24569e-93 4.71886e-93 9.15473e-93 1.6357e-92 2.68684e-92 4.05476e-92 5.62718e-92 7.20512e-92 8.56666e-92 9.55739e-92 1.01554e-91 1.0469e-91 1.06674e-91 1.08875e-91 1.11714e-91 1.14678e-91 1.16915e-91 1.17984e-91 1.18212e-91 1.18453e-91 1.19508e-91 1.21658e-91 1.24574e-91 1.27511e-91 1.29573e-91 1.29916e-91 1.2782e-91 1.22725e-91 1.14341e-91 1.02915e-91 8.94939e-92 7.59283e-92 6.44834e-92 5.71752e-92 5.5143e-92 5.83411e-92 6.56606e-92 7.53737e-92 8.56592e-92 9.49872e-92 1.02313e-91 1.07172e-91 1.0973e-91 1.1071e-91 1.11086e-91 1.11653e-91 1.12709e-91 1.14027e-91 1.15079e-91 1.15335e-91 1.14467e-91 1.12453e-91 1.09605e-91 1.06504e-91 1.03798e-91 1.01952e-91 1.01101e-91 1.0109e-91 1.01582e-91 1.02159e-91 1.02436e-91 1.02212e-91 1.01624e-91 1.01148e-91 1.01433e-91 1.03055e-91 1.0632e-91 1.11106e-91 1.16765e-91 1.22196e-91 1.2618e-91 1.2787e-91 1.27133e-91 1.24612e-91 1.21603e-91 1.19807e-91 1.2089e-91 1.25801e-91 1.34157e-91 1.44105e-91 1.52872e-91 1.57741e-91 1.57023e-91 1.50652e-91 1.40219e-91 1.2841e-91 1.18e-91 1.10853e-91 1.07456e-91 1.07233e-91 1.09285e-91 1.12894e-91 1.17438e-91 1.21973e-91 1.25052e-91 1.25095e-91 1.21091e-91 1.13129e-91 1.02418e-91 9.08115e-92 8.01292e-92 7.15732e-92 6.54006e-92 6.09233e-92 5.6848e-92 5.18635e-92 4.5233e-92 3.70896e-92 2.82905e-92 1.99545e-92 1.29797e-92 7.78073e-93 4.30143e-93 2.19647e-93 1.03821e-93 4.55381e-94 1.85853e-94 7.07742e-95 2.52177e-95 8.43047e-96 2.65137e-96 7.86441e-97 2.20544e-97 5.8608e-98 1.47908e-98 3.55212e-99 8.13348e-100 1.77886e-100 3.72236e-101 7.46442e-102 1.43655e-102 2.65708e-103 4.72952e-104 8.11144e-105 1.342e-105 2.14419e-106 3.31192e-107 4.95026e-108 7.16658e-109 1.00581e-109 1.36962e-110 1.81096e-111 2.32686e-112 2.90733e-113 3.5349e-114 4.18506e-115 4.82764e-116 5.42919e-117 5.9559e-118 6.37684e-119 6.66706e-120 6.81003e-121 6.79917e-122 6.63823e-123 6.34058e-124 5.92746e-125 5.42557e-126 4.8644e-127 4.27349e-128 3.68011e-129 3.10742e-130 2.55724e-131 0 
0 2.19897e-185 5.05965e-184 1.14927e-182 2.58148e-181 5.73351e-180 1.25902e-178 2.73309e-177 5.86462e-176 1.24377e-174 2.60681e-173 5.39872e-172 1.10468e-170 2.23301e-169 4.45861e-168 8.79244e-167 1.71223e-165 3.2923e-164 6.24973e-163 1.17108e-161 2.16579e-160 3.95259e-159 7.11739e-158 1.26434e-156 2.21536e-155 3.82815e-154 6.52269e-153 1.09568e-151 1.81419e-150 2.96037e-149 4.75983e-148 7.53943e-147 1.17625e-145 1.80714e-144 2.73351e-143 4.07e-142 5.96373e-141 8.59793e-140 1.21933e-138 1.70056e-137 2.33187e-136 3.14299e-135 4.16288e-134 5.41678e-133 6.92245e-132 8.68609e-131 1.0698e-129 1.2929e-128 1.53272e-127 1.7818e-126 2.03047e-125 2.26737e-124 2.48013e-123 2.65635e-122 2.78469e-121 2.85609e-120 2.86468e-119 2.80864e-118 2.69045e-117 2.51679e-116 2.29795e-115 2.04677e-114 1.77743e-113 1.50401e-112 1.2393e-111 9.93773e-111 7.74979e-110 5.87318e-109 4.32226e-108 3.08645e-107 2.13676e-106 1.4329e-105 9.29907e-105 5.83439e-104 3.53536e-103 2.06667e-102 1.16412e-101 6.31069e-101 3.28795e-100 1.64411e-99 7.87838e-99 3.61197e-98 1.58163e-97 6.60261e-97 2.62255e-96 9.89039e-96 3.5335e-95 1.19304e-94 3.79707e-94 1.13608e-93 3.18631e-93 8.35197e-93 2.03971e-92 4.62666e-92 9.71752e-92 1.88445e-91 3.3658e-91 5.52707e-91 8.339e-91 1.15708e-90 1.48138e-90 1.76124e-90 1.96494e-90 2.08797e-90 2.15255e-90 2.19338e-90 2.23859e-90 2.29683e-90 2.35764e-90 2.4036e-90 2.42563e-90 2.43045e-90 2.4356e-90 2.45744e-90 2.50172e-90 2.56171e-90 2.6221e-90 2.6645e-90 2.67152e-90 2.62841e-90 2.52363e-90 2.35124e-90 2.11635e-90 1.84047e-90 1.56167e-90 1.32648e-90 1.17632e-90 1.13458e-90 1.20032e-90 1.35076e-90 1.55039e-90 1.76179e-90 1.95353e-90 2.10414e-90 2.20408e-90 2.25677e-90 2.27701e-90 2.28481e-90 2.29646e-90 2.31808e-90 2.34502e-90 2.36647e-90 2.37157e-90 2.35361e-90 2.31217e-90 2.25368e-90 2.19005e-90 2.1346e-90 2.09682e-90 2.07949e-90 2.07934e-90 2.08947e-90 2.10132e-90 2.10693e-90 2.10227e-90 2.09013e-90 2.08032e-90 2.08615e-90 2.11947e-90 2.18652e-90 2.28478e-90 2.40097e-90 2.51246e-90 2.59427e-90 2.62901e-90 2.61397e-90 2.56234e-90 2.5007e-90 2.46399e-90 2.48637e-90 2.58729e-90 2.75884e-90 2.96301e-90 3.14289e-90 3.24276e-90 3.22797e-90 3.09716e-90 2.883e-90 2.64058e-90 2.42686e-90 2.28006e-90 2.2102e-90 2.20553e-90 2.24761e-90 2.3217e-90 2.415e-90 2.50809e-90 2.57126e-90 2.57208e-90 2.48977e-90 2.32616e-90 2.10602e-90 1.86739e-90 1.64767e-90 1.47158e-90 1.34446e-90 1.25221e-90 1.16831e-90 1.06583e-90 9.29591e-91 7.62305e-91 5.81541e-91 4.10265e-91 2.66925e-91 1.60054e-91 8.85116e-92 4.52137e-92 2.13799e-92 9.38187e-93 3.83082e-93 1.45956e-93 5.20343e-94 1.74055e-94 5.47728e-95 1.62567e-95 4.56188e-96 1.21309e-96 3.06355e-97 7.36248e-98 1.68703e-98 3.69237e-99 7.73219e-100 1.55169e-100 2.98856e-101 5.53196e-102 9.85439e-103 1.69142e-103 2.80061e-104 4.47827e-105 6.92273e-106 1.03557e-106 1.50044e-107 2.10756e-108 2.87227e-109 3.80099e-110 4.88791e-111 6.11243e-112 7.43816e-113 8.81372e-114 1.01757e-114 1.14535e-115 1.25755e-116 1.34759e-117 1.41015e-118 1.44165e-119 1.44061e-120 1.40775e-121 1.34581e-122 1.25924e-123 1.15364e-124 1.03524e-125 9.10292e-127 7.84599e-128 6.63094e-129 5.46176e-130 0 
0 4.84569e-184 1.11388e-182 2.52768e-181 5.67221e-180 1.2586e-178 2.76109e-177 5.98808e-176 1.28368e-174 2.71985e-173 5.69507e-172 1.17833e-170 2.40879e-169 4.86454e-168 9.70376e-167 1.91178e-165 3.71947e-164 7.14511e-163 1.35507e-161 2.53677e-160 4.68707e-159 8.54596e-158 1.53742e-156 2.72854e-155 4.77645e-154 8.24606e-153 1.40372e-151 2.35578e-150 3.89702e-149 6.35323e-148 1.02056e-146 1.61506e-145 2.5174e-144 3.86406e-143 5.83949e-142 8.68666e-141 1.27169e-139 1.83173e-138 2.59534e-137 3.61638e-136 4.95441e-135 6.67175e-134 8.82879e-133 1.14778e-131 1.46551e-130 1.83724e-129 2.26078e-128 2.72981e-127 3.23331e-126 3.75541e-125 4.27576e-124 4.77044e-123 5.21351e-122 5.57906e-121 5.84354e-120 5.98815e-119 6.00098e-118 5.87851e-117 5.62629e-116 5.25864e-115 4.79729e-114 4.26931e-113 3.70435e-112 3.13187e-111 2.57849e-110 2.06593e-109 1.60974e-108 1.21894e-107 8.96318e-107 6.39521e-106 4.42383e-105 2.96421e-104 1.92213e-103 1.20502e-102 7.29605e-102 4.26172e-101 2.3987e-100 1.29933e-99 6.76451e-99 3.37998e-98 1.61844e-97 7.41455e-97 3.24437e-96 1.35342e-95 5.37201e-95 2.02455e-94 7.22816e-94 2.4389e-93 7.75733e-93 2.31956e-92 6.50176e-92 1.70329e-91 4.15754e-91 9.42587e-91 1.97885e-90 3.83589e-90 6.84878e-90 1.12432e-89 1.69592e-89 2.35277e-89 3.01187e-89 3.5807e-89 3.99487e-89 4.24518e-89 4.37666e-89 4.45977e-89 4.55158e-89 4.66975e-89 4.79313e-89 4.88646e-89 4.93137e-89 4.94148e-89 4.95232e-89 4.99703e-89 5.08724e-89 5.20929e-89 5.33207e-89 5.41823e-89 5.43247e-89 5.34479e-89 5.1317e-89 4.78119e-89 4.30366e-89 3.74292e-89 3.1763e-89 2.69837e-89 2.39325e-89 2.30848e-89 2.44213e-89 2.74789e-89 3.15362e-89 3.58329e-89 3.97303e-89 4.27922e-89 4.4825e-89 4.5898e-89 4.63116e-89 4.64714e-89 4.67083e-89 4.7146e-89 4.76903e-89 4.81228e-89 4.82229e-89 4.78555e-89 4.70125e-89 4.58244e-89 4.45335e-89 4.34098e-89 4.26456e-89 4.22962e-89 4.22952e-89 4.25017e-89 4.27416e-89 4.28544e-89 4.27582e-89 4.25106e-89 4.23107e-89 4.24288e-89 4.31054e-89 4.44668e-89 4.64619e-89 4.88207e-89 5.1084e-89 5.27452e-89 5.34517e-89 5.31479e-89 5.21021e-89 5.08536e-89 5.01118e-89 5.0569e-89 5.26197e-89 5.61026e-89 6.02463e-89 6.38958e-89 6.59213e-89 6.56198e-89 6.29641e-89 5.8617e-89 5.36962e-89 4.93572e-89 4.63754e-89 4.4955e-89 4.48583e-89 4.57116e-89 4.72157e-89 4.911e-89 5.09996e-89 5.22812e-89 5.22965e-89 5.06235e-89 4.72987e-89 4.28246e-89 3.79731e-89 3.35038e-89 2.992e-89 2.7331e-89 2.54518e-89 2.37438e-89 2.166e-89 1.88919e-89 1.54936e-89 1.18213e-89 8.34127e-90 5.42824e-90 3.2558e-90 1.80107e-90 9.20357e-91 4.35378e-91 1.91136e-91 7.80822e-92 2.97648e-92 1.06171e-92 3.55346e-93 1.1189e-93 3.32298e-94 9.33076e-95 2.48287e-95 6.27454e-96 1.50898e-96 3.46011e-97 7.57854e-98 1.58819e-98 3.18956e-99 6.14774e-100 1.13885e-100 2.03027e-101 3.48751e-102 5.7791e-103 9.24835e-104 1.4308e-104 2.14207e-105 3.1062e-106 4.36664e-107 5.95595e-108 7.88833e-109 1.01525e-109 1.27066e-110 1.54757e-111 1.83532e-112 2.12075e-113 2.3891e-114 2.6254e-115 2.81582e-116 2.94909e-117 3.01759e-118 3.01805e-119 2.95179e-120 2.82441e-121 2.64505e-122 2.42538e-123 2.17839e-124 1.91718e-125 1.65393e-126 1.39905e-127 1.15339e-128 0 
0 1.0556e-182 2.42418e-181 5.49579e-180 1.23209e-178 2.73125e-177 5.98604e-176 1.29697e-174 2.77771e-173 5.87977e-172 1.22999e-170 2.54247e-169 5.19249e-168 1.04763e-166 2.08783e-165 4.10944e-164 7.98758e-163 1.53297e-161 2.90455e-160 5.43238e-159 1.00278e-157 1.82666e-156 3.2831e-155 5.82126e-154 1.01809e-152 1.756e-151 2.98646e-150 5.00737e-149 8.27571e-148 1.34793e-146 2.16328e-145 3.42028e-144 5.32632e-143 8.16812e-142 1.23327e-140 1.8329e-139 2.68085e-138 3.85797e-137 5.46132e-136 7.603e-135 1.04067e-133 1.40013e-132 1.85115e-131 2.40441e-130 3.06726e-129 3.84186e-128 4.72333e-127 5.6982e-126 6.74324e-125 7.82522e-124 8.90165e-123 9.92281e-122 1.0835e-120 1.15846e-119 1.21232e-118 1.24125e-117 1.24283e-116 1.21642e-115 1.16323e-114 1.08629e-113 9.90151e-113 8.80429e-112 7.63278e-111 6.44778e-110 5.30406e-109 4.24616e-108 3.30582e-107 2.50118e-106 1.83768e-105 1.31011e-104 9.05526e-104 6.06264e-103 3.92816e-102 2.46068e-101 1.4887e-100 8.68891e-100 4.88675e-99 2.64502e-98 1.376e-97 6.8702e-97 3.28723e-96 1.50487e-95 6.58009e-95 2.743e-94 1.088e-93 4.09753e-93 1.46195e-92 4.92964e-92 1.56697e-91 4.68263e-91 1.31178e-90 3.43459e-90 8.37907e-90 1.89875e-89 3.9844e-89 7.72041e-89 1.37795e-88 2.26142e-88 3.41031e-88 4.73035e-88 6.05486e-88 7.19809e-88 8.03073e-88 8.53428e-88 8.79899e-88 8.96622e-88 9.15057e-88 9.38764e-88 9.63516e-88 9.82256e-88 9.91309e-88 9.93402e-88 9.95654e-88 1.0047e-87 1.02288e-87 1.04743e-87 1.07211e-87 1.08943e-87 1.09228e-87 1.07465e-87 1.0318e-87 9.61332e-88 8.65345e-88 7.52648e-88 6.38786e-88 5.42755e-88 4.81457e-88 4.64435e-88 4.91299e-88 5.52746e-88 6.34284e-88 7.20633e-88 7.98962e-88 8.60513e-88 9.01393e-88 9.22999e-88 9.31355e-88 9.34594e-88 9.39352e-88 9.48112e-88 9.58989e-88 9.67608e-88 9.69553e-88 9.62121e-88 9.4516e-88 9.21301e-88 8.95406e-88 8.72892e-88 8.57606e-88 8.50645e-88 8.50664e-88 8.54824e-88 8.59633e-88 8.6187e-88 8.59909e-88 8.54913e-88 8.50886e-88 8.5325e-88 8.66834e-88 8.94168e-88 9.34218e-88 9.81567e-88 1.027e-87 1.06035e-87 1.07455e-87 1.06849e-87 1.04754e-87 1.02254e-87 1.00772e-87 1.01695e-87 1.05816e-87 1.12807e-87 1.21122e-87 1.28443e-87 1.32505e-87 1.31897e-87 1.26566e-87 1.17842e-87 1.07966e-87 9.92555e-88 9.32673e-88 9.04118e-88 9.02137e-88 9.19247e-88 9.49435e-88 9.87461e-88 1.02539e-87 1.0511e-87 1.05138e-87 1.01775e-87 9.50949e-88 8.61036e-88 7.63509e-88 6.73625e-88 6.01506e-88 5.49371e-88 5.11516e-88 4.77135e-88 4.35241e-88 3.79628e-88 3.11368e-88 2.37602e-88 1.67687e-88 1.09151e-88 6.54858e-89 3.62374e-89 1.85242e-89 8.76641e-90 3.85023e-90 1.57363e-90 6.0017e-91 2.14196e-91 7.17303e-92 2.25995e-92 6.7159e-93 1.887e-93 5.02452e-94 1.27062e-94 3.05785e-95 7.01666e-96 1.53794e-96 3.22533e-97 6.48223e-98 1.25036e-98 2.31803e-99 4.13562e-100 7.10955e-101 1.17904e-101 1.88833e-102 2.92377e-103 4.38074e-104 6.35764e-105 8.9448e-106 1.22105e-106 1.61855e-107 2.08487e-108 2.61156e-109 3.18335e-110 3.77847e-111 4.3698e-112 4.92696e-113 5.41891e-114 5.81696e-115 6.09755e-116 6.2446e-117 6.251e-118 6.11912e-119 5.86018e-120 5.49288e-121 5.04115e-122 4.53179e-123 3.99192e-124 3.44686e-125 2.91828e-126 2.40798e-127 0 
0 2.27299e-181 5.21494e-180 1.18113e-178 2.64541e-177 5.85863e-176 1.2828e-174 2.77674e-173 5.94125e-172 1.25643e-170 2.62582e-169 5.42261e-168 1.10641e-166 2.23016e-165 4.44032e-164 8.73158e-163 1.69557e-161 3.25108e-160 6.15411e-159 1.14992e-157 2.12069e-156 3.85944e-155 6.9302e-154 1.22765e-152 2.14507e-151 3.69638e-150 6.28069e-149 1.0521e-147 1.73721e-146 2.82693e-145 4.53276e-144 7.16e-143 1.11399e-141 1.70679e-140 2.57465e-139 3.82301e-138 5.58655e-137 8.03225e-136 1.13601e-134 1.58008e-133 2.16081e-132 2.90458e-131 3.83677e-130 4.97904e-129 6.34601e-128 7.94155e-127 9.755e-126 1.1758e-124 1.39021e-123 1.61186e-122 1.83197e-121 2.04035e-120 2.22596e-119 2.37789e-118 2.4863e-117 2.54343e-116 2.54449e-115 2.48828e-114 2.37745e-113 2.21831e-112 2.02026e-111 1.79487e-110 1.55474e-109 1.31226e-108 1.07859e-107 8.62749e-107 6.71133e-106 5.07363e-105 3.72468e-104 2.65323e-103 1.83238e-102 1.22583e-101 7.93616e-101 4.96745e-100 3.00292e-99 1.75132e-98 9.84202e-98 5.32307e-97 2.76708e-96 1.38054e-95 6.60068e-95 3.01955e-94 1.31936e-93 5.49604e-93 2.17846e-92 8.1988e-92 2.92329e-91 9.85087e-91 3.1293e-90 9.34573e-90 2.61657e-89 6.8471e-89 1.66955e-88 3.78147e-88 7.93161e-88 1.53626e-87 2.74097e-87 4.497e-87 6.78007e-87 9.40285e-87 1.20344e-86 1.4306e-86 1.59611e-86 1.69625e-86 1.74894e-86 1.78221e-86 1.81881e-86 1.86583e-86 1.91492e-86 1.95212e-86 1.97016e-86 1.97444e-86 1.97906e-86 1.99717e-86 2.03337e-86 2.0822e-86 2.13126e-86 2.16567e-86 2.17133e-86 2.13626e-86 2.05108e-86 1.91102e-86 1.72026e-86 1.49633e-86 1.27012e-86 1.07935e-86 9.57599e-87 9.23807e-87 9.77198e-87 1.09929e-86 1.26129e-86 1.43286e-86 1.5885e-86 1.71083e-86 1.79211e-86 1.83512e-86 1.85181e-86 1.8583e-86 1.86775e-86 1.88508e-86 1.90657e-86 1.92354e-86 1.92727e-86 1.91241e-86 1.87867e-86 1.8313e-86 1.77995e-86 1.73535e-86 1.70512e-86 1.69142e-86 1.69153e-86 1.69982e-86 1.70935e-86 1.71374e-86 1.70979e-86 1.69982e-86 1.69179e-86 1.69648e-86 1.72344e-86 1.77769e-86 1.85718e-86 1.95114e-86 2.0413e-86 2.1075e-86 2.13573e-86 2.12376e-86 2.08229e-86 2.03279e-86 2.0035e-86 2.02195e-86 2.10379e-86 2.24254e-86 2.4075e-86 2.55271e-86 2.63323e-86 2.62112e-86 2.51533e-86 2.34221e-86 2.14624e-86 1.97338e-86 1.85449e-86 1.79774e-86 1.79373e-86 1.82764e-86 1.88755e-86 1.96301e-86 2.03827e-86 2.08926e-86 2.08976e-86 2.02295e-86 1.89024e-86 1.7116e-86 1.51777e-86 1.33905e-86 1.19556e-86 1.09177e-86 1.01638e-86 9.47953e-87 8.64682e-87 7.54219e-87 6.1866e-87 4.72162e-87 3.3329e-87 2.16996e-87 1.30223e-87 7.20834e-88 3.68614e-88 1.74512e-88 7.66795e-89 3.13544e-89 1.19644e-89 4.27227e-90 1.43151e-90 4.5128e-91 1.34189e-91 3.77276e-92 1.00523e-92 2.54378e-93 6.12603e-94 1.40669e-94 3.08544e-95 6.47543e-96 1.30239e-96 2.51408e-97 4.66434e-98 8.32812e-99 1.4328e-99 2.37801e-100 3.8116e-101 5.90634e-102 8.85671e-103 1.28639e-103 1.81135e-104 2.4747e-105 3.28303e-106 4.23242e-107 5.30606e-108 6.47326e-109 7.6899e-110 8.90093e-111 1.00444e-111 1.10568e-112 1.18792e-113 1.24629e-114 1.27745e-115 1.27988e-116 1.25397e-117 1.20196e-118 1.12761e-119 1.03579e-120 9.31954e-122 8.2166e-123 7.101e-124 6.01742e-125 4.96957e-126 0 
0 4.83735e-180 1.10877e-178 2.50885e-177 5.61377e-176 1.24206e-174 2.717e-173 5.87561e-172 1.25598e-170 2.65356e-169 5.54043e-168 1.14308e-166 2.33009e-165 4.69227e-164 9.33363e-163 1.83367e-161 3.55743e-160 6.81458e-159 1.28875e-157 2.40585e-156 4.43271e-155 8.05958e-154 1.44587e-152 2.55891e-151 4.46704e-150 7.69047e-149 1.30551e-147 2.1849e-146 3.60436e-145 5.85991e-144 9.38728e-143 1.48147e-141 2.30284e-140 3.52506e-139 5.31264e-138 7.88138e-137 1.15066e-135 1.65291e-134 2.33563e-133 3.2457e-132 4.43461e-131 5.9557e-130 7.86009e-129 1.01911e-127 1.29775e-126 1.62259e-125 1.99134e-124 2.39811e-123 2.83292e-122 3.2817e-121 3.72659e-120 4.14684e-119 4.52015e-118 4.82449e-117 5.04008e-116 5.15145e-115 5.14917e-114 5.03113e-113 4.80294e-112 4.47764e-111 4.07443e-110 3.61683e-109 3.1303e-108 2.6399e-107 2.16802e-106 1.73273e-105 1.34678e-104 1.01731e-103 7.46224e-103 5.31134e-102 3.66519e-101 2.44998e-100 1.58489e-99 9.91241e-99 5.98758e-98 3.48927e-97 1.95939e-96 1.05893e-95 5.50049e-95 2.74224e-94 1.31017e-93 5.98915e-93 2.61502e-92 1.08857e-91 4.31179e-91 1.62168e-90 5.7783e-90 1.94591e-89 6.17768e-89 1.84387e-88 5.15938e-88 1.34938e-87 3.28853e-87 7.44478e-87 1.56085e-86 3.02196e-86 5.38987e-86 8.84034e-86 1.33254e-85 1.8477e-85 2.36457e-85 2.81079e-85 3.13599e-85 3.33289e-85 3.43657e-85 3.50199e-85 3.57381e-85 3.66599e-85 3.76224e-85 3.83525e-85 3.87079e-85 3.87944e-85 3.88881e-85 3.92463e-85 3.99591e-85 4.0919e-85 4.1883e-85 4.25588e-85 4.26698e-85 4.19804e-85 4.03066e-85 3.75545e-85 3.3807e-85 2.94085e-85 2.49656e-85 2.12194e-85 1.88287e-85 1.81656e-85 1.92146e-85 2.16127e-85 2.47947e-85 2.81646e-85 3.12219e-85 3.36251e-85 3.52227e-85 3.60691e-85 3.63985e-85 3.65271e-85 3.67125e-85 3.70515e-85 3.74711e-85 3.78017e-85 3.78723e-85 3.75784e-85 3.6915e-85 3.59853e-85 3.49785e-85 3.41053e-85 3.35145e-85 3.32477e-85 3.32516e-85 3.34148e-85 3.36014e-85 3.36866e-85 3.36078e-85 3.34113e-85 3.32532e-85 3.33447e-85 3.38737e-85 3.49382e-85 3.64977e-85 3.8341e-85 4.01097e-85 4.14087e-85 4.19632e-85 4.17299e-85 4.09181e-85 3.99494e-85 3.93773e-85 3.97415e-85 4.13484e-85 4.40705e-85 4.73055e-85 5.01525e-85 5.17306e-85 5.14922e-85 4.94166e-85 4.6021e-85 4.21771e-85 3.87858e-85 3.64523e-85 3.53373e-85 3.52573e-85 3.59218e-85 3.70968e-85 3.85774e-85 4.00535e-85 4.10532e-85 4.1062e-85 3.97497e-85 3.71436e-85 3.36349e-85 2.98266e-85 2.63136e-85 2.34915e-85 2.14487e-85 1.99644e-85 1.86183e-85 1.69821e-85 1.48131e-85 1.21517e-85 9.27554e-86 6.54867e-86 4.26463e-86 2.55998e-86 1.41748e-86 7.25116e-87 3.43425e-87 1.50963e-87 6.1758e-88 2.35776e-88 8.42364e-89 2.82408e-89 8.90806e-90 2.65045e-90 7.4565e-91 1.98804e-91 5.03415e-92 1.21317e-92 2.7877e-93 6.11891e-94 1.28511e-94 2.58661e-95 4.99683e-96 9.27757e-97 1.65777e-97 2.85429e-98 4.74095e-99 7.60504e-100 1.17939e-100 1.76995e-101 2.57284e-102 3.62573e-103 4.95759e-104 6.58236e-105 8.49289e-106 1.06562e-106 1.30112e-107 1.54696e-108 1.7921e-109 2.02404e-110 2.22995e-111 2.39787e-112 2.51787e-113 2.58305e-114 2.5902e-115 2.53997e-116 2.43675e-117 2.28803e-118 2.10356e-119 1.89436e-120 1.67164e-121 1.44596e-122 1.2264e-123 1.01373e-124 0 