# vtk DataFile Version 3.0
Gray-Scott Simulation Output
ASCII
DATASET STRUCTURED_POINTS
DIMENSIONS 256 256 1
SPACING 1.0 1.0 1.0
ORIGIN 0 0 0
POINT_DATA 65536
SCALARS u double
LOOKUP_TABLE default
0 0 0 0 0 0 0 0 0 0 0 0 0 0 0 0 0 0 0 0 0 0 0 0 0 0 0 0 0 0 0 0 0 0 0 0 0 0 0 0 0 0 0 0 0 0 0 0 0 0 0 0 0 0 0 0 0 0 0 0 0 0 0 0 0 0 0 0 0 0 0 0 0 0 0 0 0 0 0 0 0 0 0 0 0 0 0 0 0 0 0 0 0 0 0 0 0 0 0 0 0 0 0 0 0 0 0 0 0 0 0 0 0 0 0 0 0 0 0 0 0 0 0 0 0 0 0 0 0 0 0 0 0 0 0 0 0 0 0 0 0 0 0 0 0 0 0 0 0 0 0 0 0 0 0 0 0 0 0 0 0 0 0 0 0 0 0 0 0 0 0 0 0 0 0 0 0 0 0 0 0 0 0 0 0 0 0 0 0 0 0 0 0 0 0 0 0 0 0 0 0 0 0 0 0 0 0 0 0 0 0 0 0 0 0 0 0 0 0 0 0 0 0 0 0 0 0 0 0 0 0 0 0 0 0 0 0 0 0 0 0 0 0 0 0 0 0 0 0 0 0 0 0 0 0 0 
0 7.76075e-82 3.07801e-81 1.13535e-80 4.13373e-80 1.49157e-79 5.33496e-79 1.89142e-78 6.64636e-78 2.31468e-77 7.9888e-77 2.73227e-76 9.25955e-76 3.1092e-75 1.03435e-74 3.40894e-74 1.11293e-73 3.59903e-73 1.15275e-72 3.6567e-72 1.14871e-71 3.57328e-71 1.10058e-70 3.35618e-70 1.0132e-69 3.02791e-69 8.95671e-69 2.62226e-68 7.59778e-68 2.17844e-67 6.18033e-67 1.7348e-66 4.81744e-66 1.32335e-65 3.59571e-65 9.6628e-65 2.56797e-64 6.74846e-64 1.75349e-63 4.50446e-63 1.14388e-62 2.87125e-62 7.12312e-62 1.74636e-61 4.23074e-61 1.01268e-60 2.3947e-60 5.59384e-60 1.29062e-59 2.94085e-59 6.61728e-59 1.47019e-58 3.22479e-58 6.9826e-58 1.49235e-57 3.14781e-57 6.55215e-57 1.34569e-56 2.72671e-56 5.45026e-56 1.07455e-55 2.08939e-55 4.0063e-55 7.57439e-55 1.41183e-54 2.59416e-54 4.69831e-54 8.38631e-54 1.47514e-53 2.55674e-53 4.36599e-53 7.34475e-53 1.21711e-52 1.98653e-52 3.19331e-52 5.05509e-52 7.87997e-52 1.20948e-51 1.82779e-51 2.71946e-51 3.98336e-51 5.74401e-51 8.15401e-51 1.1395e-50 1.56767e-50 2.12325e-50 2.83123e-50 3.71713e-50 4.80555e-50 6.1183e-50 7.67251e-50 9.47857e-50 1.15383e-49 1.38434e-49 1.63749e-49 1.91027e-49 2.19868e-49 2.49786e-49 2.80238e-49 3.10649e-49 3.40451e-49 3.69109e-49 3.96154e-49 4.21202e-49 4.43966e-49 4.6426e-49 4.81995e-49 4.97162e-49 5.09817e-49 5.20059e-49 5.28012e-49 5.33807e-49 5.37574e-49 5.39436e-49 5.39514e-49 5.3793e-49 5.34824e-49 5.30358e-49 5.24735e-49 5.182e-49 5.11043e-49 5.03593e-49 4.96205e-49 4.8924e-49 4.83048e-49 4.77938e-49 4.74156e-49 4.71873e-49 4.71165e-49 4.72013e-49 4.74307e-49 4.77857e-49 4.82411e-49 4.87679e-49 4.93351e-49 4.99127e-49 5.04733e-49 5.09935e-49 5.14555e-49 5.18471e-49 5.2162e-49 5.23994e-49 5.2563e-49 5.26607e-49 5.2703e-49 5.27025e-49 5.26727e-49 5.26275e-49 5.25801e-49 5.25429e-49 5.2527e-49 5.25418e-49 5.2595e-49 5.26926e-49 5.28383e-49 5.30344e-49 5.32811e-49 5.3577e-49 5.39194e-49 5.4304e-49 5.47255e-49 5.51777e-49 5.56531e-49 5.61437e-49 5.66406e-49 5.7134e-49 5.7613e-49 5.80663e-49 5.84817e-49 5.88468e-49 5.91494e-49 5.93783e-49 5.95238e-49 5.95789e-49 5.95389e-49 5.94028e-49 5.91721e-49 5.88512e-49 5.84459e-49 5.79626e-49 5.74071e-49 5.67834e-49 5.60923e-49 5.53318e-49 5.44961e-49 5.35762e-49 5.25609e-49 5.14376e-49 5.01934e-49 4.88165e-49 4.72973e-49 4.56293e-49 4.38098e-49 4.18403e-49 3.97272e-49 3.74815e-49 3.51191e-49 3.26604e-49 3.01301e-49 2.75567e-49 2.49716e-49 2.24079e-49 1.98995e-49 1.74794e-49 1.51781e-49 1.30226e-49 1.10345e-49 9.22996e-50 7.6183e-50 6.20257e-50 4.97967e-50 3.94113e-50 3.07415e-50 2.36277e-50 1.78909e-50 1.33443e-50 9.80304e-51 7.09227e-51 5.05291e-51 3.54494e-51 2.44894e-51 1.66587e-51 1.11585e-51 7.36005e-52 4.78057e-52 3.05789e-52 1.92634e-52 1.1952e-52 7.30423e-53 4.39714e-53 2.60775e-53 1.5237e-53 8.77226e-54 4.97675e-54 2.78258e-54 1.53342e-54 8.32975e-55 4.46077e-55 2.35528e-55 1.22625e-55 6.29604e-56 3.1883e-56 1.59258e-56 7.8478e-57 3.81545e-57 1.8304e-57 8.66561e-58 4.04906e-58 1.86749e-58 8.50267e-59 3.82166e-59 1.69497e-59 7.39605e-60 3.11942e-60 1.13399e-60 0 
0 3.07248e-81 1.21872e-80 4.49596e-80 1.63717e-79 5.90824e-79 2.11354e-78 7.49432e-78 2.63388e-77 9.17433e-77 3.16691e-76 1.08331e-75 3.67194e-75 1.2332e-74 4.1033e-74 1.35259e-73 4.41674e-73 1.42858e-72 4.57664e-72 1.45208e-71 4.56255e-71 1.41958e-70 4.37337e-70 1.33395e-69 4.02806e-69 1.20406e-68 3.56257e-68 1.04328e-67 3.02362e-67 8.67164e-67 2.46086e-66 6.90949e-66 1.91928e-65 5.27379e-65 1.43338e-64 3.85311e-64 1.02431e-63 2.69267e-63 6.99875e-63 1.79846e-62 4.56858e-62 1.14714e-61 2.84686e-61 6.982e-61 1.69206e-60 4.05157e-60 9.58429e-60 2.23963e-59 5.16924e-59 1.17831e-58 2.65235e-58 5.89506e-58 1.29355e-57 2.80198e-57 5.99081e-57 1.26413e-56 2.63231e-56 5.40837e-56 1.0963e-55 2.19219e-55 4.32373e-55 8.41044e-55 1.61328e-54 3.05126e-54 5.68955e-54 1.04581e-53 1.89479e-53 3.38335e-53 5.9534e-53 1.03221e-52 1.76324e-52 2.96721e-52 4.91855e-52 8.0304e-52 1.29125e-51 2.04464e-51 3.18806e-51 4.8945e-51 7.39832e-51 1.10098e-50 1.61298e-50 2.3263e-50 3.3028e-50 4.61613e-50 6.35121e-50 8.60262e-50 1.14715e-49 1.50612e-49 1.94709e-49 2.47886e-49 3.1083e-49 3.83955e-49 4.67322e-49 5.60587e-49 6.62963e-49 7.73222e-49 8.89727e-49 1.0105e-48 1.13333e-48 1.2559e-48 1.37589e-48 1.49116e-48 1.59981e-48 1.7003e-48 1.7915e-48 1.87269e-48 1.94352e-48 2.00398e-48 2.05433e-48 2.09498e-48 2.12646e-48 2.1493e-48 2.16405e-48 2.17121e-48 2.17125e-48 2.16468e-48 2.15204e-48 2.13398e-48 2.11132e-48 2.08503e-48 2.05625e-48 2.02632e-48 1.99665e-48 1.96868e-48 1.94382e-48 1.92331e-48 1.90813e-48 1.89897e-48 1.89613e-48 1.89953e-48 1.90873e-48 1.92298e-48 1.94125e-48 1.96238e-48 1.98512e-48 2.00828e-48 2.03075e-48 2.05159e-48 2.07009e-48 2.08577e-48 2.09836e-48 2.10785e-48 2.11437e-48 2.11825e-48 2.11992e-48 2.11987e-48 2.11865e-48 2.11681e-48 2.11489e-48 2.11338e-48 2.11272e-48 2.1133e-48 2.11542e-48 2.11932e-48 2.12515e-48 2.133e-48 2.14288e-48 2.15474e-48 2.16845e-48 2.18386e-48 2.20076e-48 2.21888e-48 2.23793e-48 2.2576e-48 2.27753e-48 2.29731e-48 2.31652e-48 2.33471e-48 2.35138e-48 2.36603e-48 2.37818e-48 2.38737e-48 2.39323e-48 2.39545e-48 2.39387e-48 2.38843e-48 2.3792e-48 2.36636e-48 2.35015e-48 2.33081e-48 2.3086e-48 2.28367e-48 2.25606e-48 2.22568e-48 2.19232e-48 2.1556e-48 2.11509e-48 2.07027e-48 2.02062e-48 1.96566e-48 1.90499e-48 1.83836e-48 1.76562e-48 1.68684e-48 1.60224e-48 1.51227e-48 1.41753e-48 1.31884e-48 1.21719e-48 1.1137e-48 1.00965e-48 9.06368e-49 8.05225e-49 7.0756e-49 6.14621e-49 5.27505e-49 4.47107e-49 3.74086e-49 3.08837e-49 2.51494e-49 2.01942e-49 1.59846e-49 1.24695e-49 9.58454e-50 7.25766e-50 5.41328e-50 3.9766e-50 2.87681e-50 2.04942e-50 1.43764e-50 9.93027e-51 6.75395e-51 4.5232e-51 2.98287e-51 1.93704e-51 1.23874e-51 7.80157e-52 4.83921e-52 2.95657e-52 1.77934e-52 1.05493e-52 6.16198e-53 3.54644e-53 2.01134e-53 1.12419e-53 6.19303e-54 3.36298e-54 1.80031e-54 9.50224e-55 4.94545e-55 2.53826e-55 1.2849e-55 6.41585e-56 3.16039e-56 1.53596e-56 7.36582e-57 3.4859e-57 1.62821e-57 7.50687e-58 3.41664e-58 1.53511e-58 6.80609e-59 2.96883e-59 1.25176e-59 4.54938e-60 0 
0 1.13098e-80 4.48673e-80 1.65544e-79 6.02914e-79 2.17616e-78 7.78605e-78 2.76132e-77 9.70642e-77 3.38157e-76 1.16752e-75 3.99455e-75 1.35425e-74 4.54911e-74 1.51398e-73 4.99172e-73 1.63036e-72 5.27461e-72 1.69019e-71 5.36398e-71 1.68583e-70 5.2466e-70 1.61677e-69 4.93276e-69 1.48993e-68 4.45496e-68 1.31851e-67 3.86235e-67 1.11972e-66 3.21233e-66 9.11892e-66 2.5612e-65 7.11669e-65 1.95619e-64 5.31861e-64 1.43021e-63 3.80345e-63 1.0002e-62 2.60066e-62 6.68542e-62 1.69893e-61 4.26758e-61 1.0595e-60 2.59949e-60 6.30232e-60 1.50969e-59 3.57278e-59 8.3523e-59 1.9286e-58 4.39808e-58 9.90427e-58 2.20227e-57 4.83457e-57 1.04769e-56 2.24103e-56 4.73098e-56 9.85579e-56 2.0259e-55 4.10845e-55 8.21907e-55 1.6218e-54 3.15613e-54 6.05674e-54 1.14605e-53 2.13792e-53 3.93149e-53 7.12605e-53 1.27297e-52 2.24087e-52 3.88682e-52 6.64214e-52 1.11818e-51 1.85422e-51 3.02841e-51 4.87118e-51 7.71583e-51 1.20344e-50 1.84812e-50 2.79427e-50 4.1593e-50 6.09485e-50 8.79191e-50 1.24845e-49 1.74513e-49 2.40134e-49 3.25283e-49 4.33781e-49 5.69526e-49 7.36257e-49 9.37282e-49 1.17517e-48 1.45145e-48 1.7663e-48 2.11838e-48 2.50464e-48 2.9204e-48 3.35939e-48 3.81411e-48 4.27616e-48 4.73674e-48 5.18714e-48 5.61925e-48 6.02599e-48 6.40163e-48 6.74196e-48 7.04436e-48 7.30765e-48 7.53193e-48 7.71823e-48 7.86824e-48 7.984e-48 8.06761e-48 8.12113e-48 8.14646e-48 8.14543e-48 8.11988e-48 8.07184e-48 8.00375e-48 7.91858e-48 7.81993e-48 7.71212e-48 7.60004e-48 7.48897e-48 7.38433e-48 7.29133e-48 7.21459e-48 7.15782e-48 7.12355e-48 7.11292e-48 7.12565e-48 7.16007e-48 7.21332e-48 7.28162e-48 7.36057e-48 7.44555e-48 7.53204e-48 7.61592e-48 7.69372e-48 7.76274e-48 7.82117e-48 7.86809e-48 7.90337e-48 7.9276e-48 7.94196e-48 7.94803e-48 7.94772e-48 7.94304e-48 7.93606e-48 7.92878e-48 7.92306e-48 7.92054e-48 7.92264e-48 7.9305e-48 7.94501e-48 7.96674e-48 7.99601e-48 8.03287e-48 8.07711e-48 8.1283e-48 8.18583e-48 8.2489e-48 8.31656e-48 8.38772e-48 8.46118e-48 8.5356e-48 8.60952e-48 8.68132e-48 8.74929e-48 8.81161e-48 8.86641e-48 8.91188e-48 8.94631e-48 8.96826e-48 8.97665e-48 8.97083e-48 8.95059e-48 8.91622e-48 8.86836e-48 8.80793e-48 8.7359e-48 8.65318e-48 8.56036e-48 8.45765e-48 8.34471e-48 8.22071e-48 8.08433e-48 7.93385e-48 7.76738e-48 7.58295e-48 7.37874e-48 7.15324e-48 6.90539e-48 6.63467e-48 6.3412e-48 6.02582e-48 5.69004e-48 5.33613e-48 4.96707e-48 4.58649e-48 4.19864e-48 3.80823e-48 3.4203e-48 3.04002e-48 2.67246e-48 2.32237e-48 1.99395e-48 1.69062e-48 1.41494e-48 1.16845e-48 9.51719e-49 7.64344e-49 6.05103e-49 4.72087e-49 3.62892e-49 2.748e-49 2.04965e-49 1.50562e-49 1.08915e-49 7.75826e-50 5.44162e-50 3.75812e-50 2.55557e-50 1.71114e-50 1.12817e-50 7.32436e-51 4.68266e-51 2.94828e-51 1.82822e-51 1.11661e-51 6.71777e-52 3.98141e-52 2.32475e-52 1.33748e-52 7.58252e-53 4.23641e-53 2.33286e-53 1.26629e-53 6.77611e-54 3.57502e-54 1.85984e-54 9.54168e-55 4.82807e-55 2.40976e-55 1.18652e-55 5.76408e-56 2.76304e-56 1.30706e-56 6.10253e-57 2.81238e-57 1.27948e-57 5.74639e-58 2.54668e-58 1.11043e-58 4.68023e-59 1.70049e-59 0 
0 4.10912e-80 1.63035e-79 6.01639e-79 2.19155e-78 7.91154e-78 2.83117e-77 1.00426e-76 3.53078e-76 1.23031e-75 4.24863e-75 1.45392e-74 4.93021e-74 1.65649e-73 5.51418e-73 1.81849e-72 5.94086e-72 1.92248e-71 6.16191e-71 1.95605e-70 6.14921e-70 1.91427e-69 5.90056e-69 1.80077e-68 5.44078e-68 1.6273e-67 4.8177e-67 1.4117e-66 4.09392e-66 1.17487e-65 3.33625e-65 9.37358e-65 2.6055e-64 7.16435e-64 1.94859e-63 5.24184e-63 1.39451e-62 3.66857e-62 9.54253e-62 2.45403e-61 6.23879e-61 1.56777e-60 3.89388e-60 9.55769e-60 2.31819e-59 5.55552e-59 1.31532e-58 3.07627e-58 7.10648e-58 1.62133e-57 3.65284e-57 8.12603e-57 1.78471e-56 3.86942e-56 8.28066e-56 1.74893e-55 3.64518e-55 7.49638e-55 1.52096e-54 3.04417e-54 6.00967e-54 1.17007e-53 2.24647e-53 4.25271e-53 7.937e-53 1.46023e-52 2.64794e-52 4.73227e-52 8.33405e-52 1.44617e-51 2.47237e-51 4.16381e-51 6.90731e-51 1.12856e-50 1.81594e-50 2.87737e-50 4.48929e-50 6.89625e-50 1.04297e-49 1.55287e-49 2.27603e-49 3.28387e-49 4.66393e-49 6.52033e-49 8.97314e-49 1.21559e-48 1.62113e-48 2.12846e-48 2.75151e-48 3.50256e-48 4.3911e-48 5.42268e-48 6.59783e-48 7.91127e-48 9.35144e-48 1.09005e-47 1.2535e-47 1.42266e-47 1.59438e-47 1.76537e-47 1.93238e-47 2.09239e-47 2.24278e-47 2.38144e-47 2.50684e-47 2.61805e-47 2.71466e-47 2.79676e-47 2.86478e-47 2.91939e-47 2.96136e-47 2.99152e-47 3.01063e-47 3.01942e-47 3.01857e-47 3.00875e-47 2.9907e-47 2.96532e-47 2.93369e-47 2.89713e-47 2.85722e-47 2.81576e-47 2.77469e-47 2.73602e-47 2.70165e-47 2.67329e-47 2.65232e-47 2.63966e-47 2.63573e-47 2.64043e-47 2.65315e-47 2.67281e-47 2.69802e-47 2.72716e-47 2.75852e-47 2.79043e-47 2.82136e-47 2.85003e-47 2.87546e-47 2.89698e-47 2.91423e-47 2.92719e-47 2.93608e-47 2.94132e-47 2.9435e-47 2.94333e-47 2.94156e-47 2.93895e-47 2.93622e-47 2.93408e-47 2.93312e-47 2.93387e-47 2.93675e-47 2.94208e-47 2.95008e-47 2.96086e-47 2.97444e-47 2.99075e-47 3.00962e-47 3.03083e-47 3.05409e-47 3.07904e-47 3.10528e-47 3.13238e-47 3.15984e-47 3.18712e-47 3.21362e-47 3.23872e-47 3.26173e-47 3.28198e-47 3.29878e-47 3.31152e-47 3.31965e-47 3.32278e-47 3.32066e-47 3.31323e-47 3.30058e-47 3.28297e-47 3.26073e-47 3.23423e-47 3.20381e-47 3.16969e-47 3.13196e-47 3.0905e-47 3.045e-47 2.99498e-47 2.9398e-47 2.87876e-47 2.81113e-47 2.73622e-47 2.65347e-47 2.56246e-47 2.46298e-47 2.35505e-47 2.23895e-47 2.11521e-47 1.98465e-47 1.84834e-47 1.70761e-47 1.56403e-47 1.41933e-47 1.27539e-47 1.13414e-47 9.97471e-48 8.67176e-48 7.44836e-48 6.31756e-48 5.28907e-48 4.36892e-48 3.55938e-48 2.85917e-48 2.26385e-48 1.7664e-48 1.35793e-48 1.02833e-48 7.66999e-49 5.63397e-49 4.07524e-49 2.90258e-49 2.03559e-49 1.4056e-49 9.55641e-50 6.39731e-50 4.21678e-50 2.73691e-50 1.74928e-50 1.10104e-50 6.82528e-51 4.16722e-51 2.5062e-51 1.4848e-51 8.66646e-52 4.98405e-52 2.82444e-52 1.57739e-52 8.68258e-53 4.71095e-53 2.51981e-53 1.32885e-53 6.9101e-54 3.54357e-54 1.79224e-54 8.94136e-55 4.4006e-55 2.13684e-55 1.02385e-55 4.84119e-56 2.2593e-56 1.04075e-56 4.73277e-57 2.12466e-57 9.412e-58 4.10219e-58 1.72833e-58 6.27776e-59 0 
0 1.47951e-79 5.87099e-79 2.16689e-78 7.89456e-78 2.85047e-77 1.02024e-76 3.61962e-76 1.27284e-75 4.43616e-75 1.53226e-74 5.24466e-74 1.77884e-73 5.97804e-73 1.99045e-72 6.56579e-72 2.14551e-71 6.94468e-71 2.22648e-70 7.06966e-70 2.22309e-69 6.92247e-69 2.1344e-68 6.51581e-68 1.96925e-67 5.89171e-67 1.74482e-66 5.11438e-66 1.48365e-65 4.25921e-65 1.20989e-64 3.40052e-64 9.45555e-64 2.60094e-63 7.07679e-63 1.90442e-62 5.0684e-62 1.33388e-61 3.47101e-61 8.92995e-61 2.27117e-60 5.70973e-60 1.41873e-59 3.48385e-59 8.4537e-59 2.02683e-58 4.80087e-58 1.12334e-57 2.59622e-57 5.92602e-57 1.33575e-56 2.97291e-56 6.53249e-56 1.41699e-55 3.03388e-55 6.4109e-55 1.33684e-54 2.75058e-54 5.58348e-54 1.11807e-53 2.20833e-53 4.30169e-53 8.26303e-53 1.565e-52 2.92222e-52 5.37877e-52 9.7583e-52 1.74476e-51 3.0741e-51 5.33671e-51 9.12754e-51 1.53785e-50 2.55215e-50 4.1715e-50 6.71474e-50 1.06434e-49 1.66114e-49 2.55256e-49 3.86156e-49 5.75096e-49 8.43115e-49 1.21671e-48 1.72835e-48 2.41666e-48 3.32615e-48 4.50632e-48 6.00999e-48 7.89092e-48 1.02005e-47 1.2984e-47 1.62762e-47 2.00969e-47 2.44476e-47 2.93079e-47 3.46339e-47 4.03589e-47 4.63946e-47 5.26356e-47 5.89648e-47 6.52597e-47 7.14003e-47 7.72752e-47 8.27882e-47 8.78624e-47 9.24425e-47 9.64954e-47 1.00008e-46 1.02986e-46 1.05446e-46 1.07414e-46 1.08921e-46 1.09997e-46 1.10671e-46 1.10971e-46 1.10921e-46 1.10547e-46 1.09874e-46 1.08936e-46 1.0777e-46 1.06427e-46 1.04962e-46 1.03441e-46 1.01935e-46 1.00518e-46 9.92581e-47 9.82191e-47 9.74508e-47 9.6987e-47 9.68432e-47 9.70154e-47 9.74809e-47 9.82008e-47 9.91237e-47 1.0019e-46 1.01337e-46 1.02504e-46 1.03635e-46 1.04683e-46 1.05612e-46 1.06397e-46 1.07027e-46 1.07498e-46 1.07821e-46 1.08011e-46 1.08089e-46 1.0808e-46 1.08014e-46 1.07916e-46 1.07815e-46 1.07736e-46 1.077e-46 1.07726e-46 1.07831e-46 1.08025e-46 1.08317e-46 1.0871e-46 1.09207e-46 1.09802e-46 1.10492e-46 1.11268e-46 1.12118e-46 1.1303e-46 1.1399e-46 1.14981e-46 1.15986e-46 1.16984e-46 1.17954e-46 1.18873e-46 1.19715e-46 1.20457e-46 1.21073e-46 1.2154e-46 1.21839e-46 1.21954e-46 1.21878e-46 1.21607e-46 1.21146e-46 1.20504e-46 1.19692e-46 1.18726e-46 1.17617e-46 1.16374e-46 1.15e-46 1.13491e-46 1.11836e-46 1.10018e-46 1.08013e-46 1.05795e-46 1.03337e-46 1.00614e-46 9.76041e-47 9.4292e-47 9.06689e-47 8.67346e-47 8.24981e-47 7.79781e-47 7.32033e-47 6.82124e-47 6.30534e-47 5.77832e-47 5.24656e-47 4.71695e-47 4.19665e-47 3.6927e-47 3.21177e-47 2.75979e-47 2.34167e-47 1.9611e-47 1.62039e-47 1.32047e-47 1.06092e-47 8.40152e-48 6.55618e-48 5.04047e-48 3.81718e-48 2.84711e-48 2.09125e-48 1.51256e-48 1.0772e-48 7.55334e-49 5.21477e-49 3.54472e-49 2.37238e-49 1.56336e-49 1.01442e-49 6.48167e-50 4.07842e-50 2.52734e-50 1.54254e-50 9.27351e-51 5.49199e-51 3.20429e-51 1.84202e-51 1.04343e-51 5.82487e-52 3.20484e-52 1.7381e-52 9.29267e-53 4.89839e-53 2.54602e-53 1.30503e-53 6.59746e-54 3.2899e-54 1.61842e-54 7.85507e-55 3.76195e-55 1.77799e-55 8.29377e-56 3.81881e-56 1.7358e-56 7.78894e-57 3.44889e-57 1.50254e-57 6.32797e-58 2.29779e-58 0 
0 5.2803e-79 2.09564e-78 7.73603e-78 2.81894e-77 1.01802e-76 3.64438e-76 1.29321e-75 4.54852e-75 1.5856e-74 5.47785e-74 1.87539e-73 6.36225e-73 2.13862e-72 7.12249e-72 2.35003e-71 7.68117e-71 2.48692e-70 7.97525e-70 2.53304e-69 7.96751e-69 2.48171e-68 7.65411e-68 2.33732e-67 7.06619e-67 2.11477e-66 6.26488e-66 1.83696e-65 5.3307e-65 1.53085e-64 4.35014e-64 1.22309e-63 3.4022e-63 9.36197e-63 2.54824e-62 6.8602e-62 1.82649e-61 4.80882e-61 1.25187e-60 3.22206e-60 8.19822e-60 2.06193e-59 5.12567e-59 1.25923e-58 3.05695e-58 7.3326e-58 1.73766e-57 4.06781e-57 9.40588e-57 2.14798e-56 4.84401e-56 1.07863e-55 2.3713e-55 5.14628e-55 1.10241e-54 2.33068e-54 4.86253e-54 1.00099e-53 2.03298e-53 4.07303e-53 8.04885e-53 1.56866e-52 3.01473e-52 5.7127e-52 1.06722e-51 1.96535e-51 3.56731e-51 6.38131e-51 1.12485e-50 1.95367e-50 3.34291e-50 5.63472e-50 9.35511e-50 1.52971e-49 2.46329e-49 3.90593e-49 6.0982e-49 9.37377e-49 1.41851e-48 2.11315e-48 3.09874e-48 4.47281e-48 6.35489e-48 8.8871e-48 1.22332e-47 1.65752e-47 2.21072e-47 2.90264e-47 3.75212e-47 4.77568e-47 5.98593e-47 7.39e-47 8.9881e-47 1.07724e-46 1.27266e-46 1.48255e-46 1.70366e-46 1.93208e-46 2.16347e-46 2.39334e-46 2.61726e-46 2.83118e-46 3.03158e-46 3.21568e-46 3.38152e-46 3.52794e-46 3.65454e-46 3.76155e-46 3.84967e-46 3.91993e-46 3.97347e-46 4.01145e-46 4.03496e-46 4.045e-46 4.04247e-46 4.02828e-46 4.0034e-46 3.96896e-46 3.92638e-46 3.87739e-46 3.82405e-46 3.76872e-46 3.71397e-46 3.66244e-46 3.61666e-46 3.57891e-46 3.55099e-46 3.53414e-46 3.52892e-46 3.53517e-46 3.55208e-46 3.57821e-46 3.61171e-46 3.65042e-46 3.69204e-46 3.73437e-46 3.77537e-46 3.81335e-46 3.84699e-46 3.87541e-46 3.89816e-46 3.9152e-46 3.92682e-46 3.93361e-46 3.93636e-46 3.93599e-46 3.9335e-46 3.92991e-46 3.9262e-46 3.92326e-46 3.92191e-46 3.92283e-46 3.92659e-46 3.93361e-46 3.94417e-46 3.95843e-46 3.97641e-46 3.998e-46 4.023e-46 4.05111e-46 4.08194e-46 4.11503e-46 4.14984e-46 4.1858e-46 4.22224e-46 4.25846e-46 4.29367e-46 4.32702e-46 4.35763e-46 4.38457e-46 4.40696e-46 4.42394e-46 4.43483e-46 4.43907e-46 4.43634e-46 4.42657e-46 4.40989e-46 4.38664e-46 4.35729e-46 4.32234e-46 4.28224e-46 4.23734e-46 4.18774e-46 4.13332e-46 4.07366e-46 4.00813e-46 3.93589e-46 3.856e-46 3.76746e-46 3.66935e-46 3.56085e-46 3.44137e-46 3.31056e-46 3.16839e-46 3.01514e-46 2.85144e-46 2.67831e-46 2.49711e-46 2.30956e-46 2.11772e-46 1.92392e-46 1.73065e-46 1.54056e-46 1.35624e-46 1.18015e-46 1.0145e-46 8.61136e-47 7.2143e-47 5.96272e-47 4.86029e-47 3.90577e-47 3.09353e-47 2.41435e-47 1.85633e-47 1.40586e-47 1.04858e-47 7.70165e-48 5.57e-48 3.96633e-48 2.78079e-48 1.91949e-48 1.30449e-48 8.72852e-49 5.75041e-49 3.73022e-49 2.38269e-49 1.49875e-49 9.2843e-50 5.6645e-50 3.40411e-50 2.01519e-50 1.17528e-50 6.75336e-51 3.82385e-51 2.13368e-51 1.17342e-51 6.361e-52 3.3993e-52 1.79102e-52 9.30474e-53 4.76712e-53 2.40883e-53 1.20062e-53 5.90343e-54 2.86389e-54 1.37092e-54 6.47624e-55 3.01953e-55 1.38967e-55 6.31364e-56 2.83176e-56 1.25331e-56 5.45773e-57 2.29759e-57 8.34028e-58 0 
0 1.86791e-78 7.41448e-78 2.73752e-77 9.97714e-77 3.60378e-76 1.29036e-75 4.57981e-75 1.61115e-74 5.61763e-74 1.94118e-73 6.64734e-73 2.25563e-72 7.58394e-72 2.52639e-71 8.33781e-71 2.72596e-70 8.82815e-70 2.83186e-69 8.99688e-69 2.83073e-68 8.81973e-68 2.72101e-67 8.31167e-67 2.51359e-66 7.52511e-66 2.23001e-65 6.54097e-65 1.8988e-64 5.45483e-64 1.55064e-63 4.36142e-63 1.21365e-62 3.34094e-62 9.09732e-62 2.45011e-61 6.52595e-61 1.71888e-60 4.47663e-60 1.1527e-59 2.93422e-59 7.38315e-59 1.83618e-58 4.51305e-58 1.09612e-57 2.63047e-57 6.23663e-57 1.46069e-56 3.37917e-56 7.72073e-56 1.74202e-55 3.88099e-55 8.53646e-55 1.85357e-54 3.97268e-54 8.40332e-54 1.75412e-53 3.61289e-53 7.34152e-53 1.47164e-52 2.90969e-52 5.67373e-52 1.09098e-51 2.0684e-51 3.86609e-51 7.12324e-51 1.29359e-50 2.31516e-50 4.08299e-50 7.09479e-50 1.21455e-49 2.04814e-49 3.40193e-49 5.56505e-49 8.96496e-49 1.42208e-48 2.22105e-48 3.41522e-48 5.16979e-48 7.70362e-48 1.12996e-47 1.6314e-47 2.31831e-47 3.24262e-47 4.46409e-47 6.04912e-47 8.06846e-47 1.05939e-46 1.3694e-46 1.74284e-46 2.18426e-46 2.69619e-46 3.27858e-46 3.92849e-46 4.63978e-46 5.40323e-46 6.20675e-46 7.036e-46 7.87512e-46 8.70765e-46 9.5175e-46 1.02899e-45 1.10122e-45 1.16745e-45 1.22698e-45 1.27941e-45 1.32461e-45 1.36271e-45 1.39399e-45 1.41882e-45 1.43764e-45 1.4509e-45 1.45899e-45 1.46228e-45 1.46109e-45 1.45576e-45 1.44662e-45 1.43409e-45 1.41865e-45 1.40093e-45 1.38167e-45 1.36171e-45 1.34196e-45 1.32338e-45 1.30688e-45 1.29328e-45 1.28322e-45 1.27715e-45 1.27527e-45 1.27752e-45 1.2836e-45 1.29301e-45 1.30507e-45 1.319e-45 1.33398e-45 1.3492e-45 1.36394e-45 1.37759e-45 1.38967e-45 1.39987e-45 1.40803e-45 1.41413e-45 1.41828e-45 1.42069e-45 1.42165e-45 1.42149e-45 1.42057e-45 1.41925e-45 1.4179e-45 1.41682e-45 1.41632e-45 1.41664e-45 1.41798e-45 1.42049e-45 1.42428e-45 1.4294e-45 1.43586e-45 1.44362e-45 1.45261e-45 1.46272e-45 1.4738e-45 1.4857e-45 1.49822e-45 1.51116e-45 1.52427e-45 1.5373e-45 1.54998e-45 1.56198e-45 1.57301e-45 1.58272e-45 1.59078e-45 1.59691e-45 1.60084e-45 1.60239e-45 1.60142e-45 1.59792e-45 1.59194e-45 1.5836e-45 1.57307e-45 1.56054e-45 1.54617e-45 1.53009e-45 1.51234e-45 1.49287e-45 1.47155e-45 1.44815e-45 1.42235e-45 1.39383e-45 1.36222e-45 1.32718e-45 1.28841e-45 1.24569e-45 1.19888e-45 1.14795e-45 1.093e-45 1.03422e-45 9.71982e-46 9.06754e-46 8.3915e-46 7.69905e-46 6.99854e-46 6.2991e-46 5.61026e-46 4.94156e-46 4.30204e-46 3.69984e-46 3.14177e-46 2.63301e-46 2.17689e-46 1.77488e-46 1.42662e-46 1.13013e-46 8.82124e-47 6.78294e-47 5.13713e-47 3.83157e-47 2.8141e-47 2.03505e-47 1.44896e-47 1.0157e-47 7.00975e-48 4.7628e-48 3.18607e-48 2.09843e-48 1.36082e-48 8.68947e-49 5.46393e-49 3.38351e-49 2.06354e-49 1.2396e-49 7.33526e-50 4.27616e-50 2.45609e-50 1.39005e-50 7.75282e-51 4.2617e-51 2.30912e-51 1.2334e-51 6.49535e-52 3.37284e-52 1.72717e-52 8.72308e-53 4.34564e-53 2.1357e-53 1.03556e-53 4.95472e-54 2.33946e-54 1.09024e-54 5.01511e-55 2.2774e-55 1.02096e-55 4.51653e-56 1.96589e-56 8.27248e-57 3.00194e-57 0 
0 6.54908e-78 2.6e-77 9.60128e-77 3.49994e-76 1.26444e-75 4.52834e-75 1.60755e-74 5.65651e-74 1.9727e-73 6.81825e-73 2.33537e-72 7.92648e-72 2.66573e-71 8.88242e-71 2.93222e-70 9.58915e-70 3.10635e-69 9.96724e-69 3.16753e-68 9.9691e-68 3.10703e-67 9.58862e-67 2.9299e-66 8.86343e-66 2.6544e-65 7.86882e-65 2.30885e-64 6.70486e-64 1.92686e-63 5.47952e-63 1.54179e-62 4.29203e-62 1.18198e-61 3.21982e-61 8.6753e-61 2.31167e-60 6.09139e-60 1.58713e-59 4.08855e-59 1.04122e-58 2.62116e-58 6.52186e-58 1.60374e-57 3.89701e-57 9.35664e-57 2.21948e-56 5.2009e-56 1.20379e-55 2.75185e-55 6.21218e-55 1.38472e-54 3.04739e-54 6.62051e-54 1.41971e-53 3.0047e-53 6.27545e-53 1.29324e-52 2.62934e-52 5.27349e-52 1.04323e-51 2.03535e-51 3.91581e-51 7.42803e-51 1.38913e-50 2.56081e-50 4.65291e-50 8.33166e-50 1.4701e-49 2.55578e-49 4.37732e-49 7.38509e-49 1.22721e-48 2.00841e-48 3.23678e-48 5.13643e-48 8.02526e-48 1.23445e-47 1.86926e-47 2.78626e-47 4.08796e-47 5.90347e-47 8.39094e-47 1.17384e-46 1.61624e-46 2.19031e-46 2.92166e-46 3.83622e-46 4.95865e-46 6.31045e-46 7.90784e-46 9.75961e-46 1.18653e-45 1.42137e-45 1.67822e-45 1.95368e-45 2.24333e-45 2.54196e-45 2.84378e-45 3.14282e-45 3.43329e-45 3.70986e-45 3.968e-45 4.20418e-45 4.41597e-45 4.60201e-45 4.76198e-45 4.89635e-45 5.00624e-45 5.09311e-45 5.15861e-45 5.20434e-45 5.23179e-45 5.24229e-45 5.23703e-45 5.21714e-45 5.18384e-45 5.13855e-45 5.08305e-45 5.01949e-45 4.95049e-45 4.87905e-45 4.80843e-45 4.74201e-45 4.68304e-45 4.63441e-45 4.59846e-45 4.57677e-45 4.57004e-45 4.57808e-45 4.59981e-45 4.63341e-45 4.67645e-45 4.72616e-45 4.77959e-45 4.83389e-45 4.88644e-45 4.93507e-45 4.97809e-45 5.01438e-45 5.04337e-45 5.06501e-45 5.07969e-45 5.08818e-45 5.09148e-45 5.09081e-45 5.08743e-45 5.08266e-45 5.07775e-45 5.07385e-45 5.07201e-45 5.0731e-45 5.07784e-45 5.08677e-45 5.10025e-45 5.11849e-45 5.1415e-45 5.16915e-45 5.20119e-45 5.23722e-45 5.27674e-45 5.31917e-45 5.36383e-45 5.40997e-45 5.45675e-45 5.50326e-45 5.54849e-45 5.59137e-45 5.63074e-45 5.66542e-45 5.69427e-45 5.71619e-45 5.73028e-45 5.73584e-45 5.73247e-45 5.72005e-45 5.69879e-45 5.66913e-45 5.63168e-45 5.58712e-45 5.53607e-45 5.47897e-45 5.41599e-45 5.34699e-45 5.27146e-45 5.1886e-45 5.09732e-45 4.99641e-45 4.88456e-45 4.76053e-45 4.62325e-45 4.47186e-45 4.30584e-45 4.12502e-45 3.92967e-45 3.7205e-45 3.49867e-45 3.26588e-45 3.02426e-45 2.77642e-45 2.52534e-45 2.2743e-45 2.02674e-45 1.78613e-45 1.55575e-45 1.33859e-45 1.13716e-45 9.53363e-46 7.88465e-46 6.43033e-46 5.16974e-46 4.09607e-46 3.19758e-46 2.45892e-46 1.86236e-46 1.38904e-46 1.02014e-46 7.37656e-47 5.25145e-47 3.68061e-47 2.53963e-47 1.72517e-47 1.15375e-47 7.59674e-48 4.92489e-48 3.14373e-48 1.97607e-48 1.2232e-48 7.45715e-49 4.47778e-49 2.64856e-49 1.54332e-49 8.8603e-50 5.01224e-50 2.79419e-50 1.53521e-50 8.31419e-51 4.43875e-51 2.33637e-51 1.2126e-51 6.20632e-52 3.13291e-52 1.55995e-52 7.66256e-53 3.71356e-53 1.77587e-53 8.38084e-54 3.90366e-54 1.79479e-54 8.14623e-55 3.65015e-55 1.61397e-55 7.02172e-56 2.95345e-56 1.0714e-56 0 
0 2.27564e-77 9.0358e-77 3.33737e-76 1.2168e-75 4.39689e-75 1.57499e-74 5.59238e-74 1.96823e-73 6.86574e-73 2.37357e-72 8.13184e-72 2.76071e-71 9.28681e-71 3.09525e-70 1.02206e-69 3.34335e-69 1.08336e-68 3.47717e-68 1.10535e-67 3.47992e-67 1.08491e-66 3.34923e-66 1.02373e-65 3.09799e-65 9.28098e-65 2.75227e-64 8.07857e-64 2.34687e-63 6.74705e-63 1.91944e-62 5.40292e-62 1.50466e-61 4.1454e-61 1.12972e-60 3.04514e-60 8.11781e-60 2.14004e-59 5.57845e-59 1.43771e-58 3.6631e-58 9.22583e-58 2.29664e-57 5.65026e-57 1.37367e-56 3.29983e-56 7.83152e-56 1.83611e-55 4.25208e-55 9.72531e-55 2.19663e-54 4.89904e-54 1.07874e-53 2.34486e-53 5.03115e-53 1.0654e-52 2.22638e-52 4.59068e-52 9.3388e-52 1.87408e-51 3.7095e-51 7.24134e-51 1.39394e-50 2.64569e-50 4.95051e-50 9.13107e-50 1.65998e-49 2.974e-49 5.25031e-49 9.13237e-49 1.5649e-48 2.64146e-48 4.39148e-48 7.19021e-48 1.15929e-47 1.84043e-47 2.87666e-47 4.4265e-47 6.70509e-47 9.99754e-47 1.46724e-46 2.11939e-46 3.01306e-46 4.21584e-46 5.80553e-46 7.86842e-46 1.04963e-45 1.37822e-45 1.78142e-45 2.2669e-45 2.84038e-45 3.50491e-45 4.26019e-45 5.10201e-45 6.02207e-45 7.00799e-45 8.04373e-45 9.11036e-45 1.01871e-44 1.12524e-44 1.22854e-44 1.32673e-44 1.4182e-44 1.50169e-44 1.57637e-44 1.64179e-44 1.69787e-44 1.7448e-44 1.78303e-44 1.81311e-44 1.83565e-44 1.85123e-44 1.86041e-44 1.86366e-44 1.8614e-44 1.85404e-44 1.842e-44 1.82577e-44 1.80597e-44 1.78336e-44 1.75885e-44 1.73349e-44 1.70845e-44 1.6849e-44 1.66399e-44 1.64676e-44 1.63402e-44 1.62633e-44 1.62395e-44 1.62679e-44 1.63449e-44 1.64638e-44 1.66162e-44 1.67921e-44 1.69811e-44 1.71731e-44 1.73588e-44 1.75306e-44 1.76825e-44 1.78105e-44 1.79127e-44 1.79888e-44 1.80403e-44 1.80699e-44 1.80811e-44 1.80784e-44 1.80661e-44 1.80489e-44 1.80313e-44 1.80172e-44 1.80105e-44 1.80142e-44 1.80308e-44 1.80622e-44 1.81098e-44 1.81742e-44 1.82555e-44 1.83532e-44 1.84664e-44 1.85938e-44 1.87335e-44 1.88835e-44 1.90415e-44 1.92047e-44 1.93702e-44 1.95347e-44 1.96948e-44 1.98466e-44 1.99861e-44 2.01089e-44 2.02112e-44 2.0289e-44 2.0339e-44 2.03589e-44 2.03472e-44 2.03035e-44 2.02286e-44 2.0124e-44 1.9992e-44 1.98349e-44 1.96551e-44 1.94541e-44 1.92327e-44 1.89902e-44 1.8725e-44 1.84343e-44 1.81142e-44 1.77604e-44 1.73682e-44 1.69333e-44 1.64515e-44 1.59199e-44 1.53364e-44 1.47001e-44 1.40119e-44 1.3274e-44 1.24903e-44 1.16667e-44 1.08106e-44 9.93101e-45 9.03865e-45 8.14515e-45 7.26284e-45 6.40416e-45 5.58105e-45 4.80431e-45 4.08311e-45 3.42448e-45 2.83311e-45 2.3112e-45 1.85854e-45 1.47282e-45 1.1499e-45 8.84342e-46 6.69813e-46 4.99578e-46 3.66878e-46 2.65263e-46 1.88818e-46 1.32316e-46 9.12793e-47 6.19912e-47 4.14471e-47 2.72822e-47 1.7681e-47 1.12825e-47 7.08924e-48 4.38659e-48 2.67314e-48 1.60445e-48 9.48591e-49 5.52493e-49 3.1704e-49 1.79262e-49 9.98844e-50 5.4852e-50 2.96909e-50 1.58431e-50 8.33484e-51 4.32358e-51 2.21174e-51 1.11588e-51 5.55331e-52 2.72638e-52 1.3206e-52 6.31196e-53 2.97724e-53 1.38603e-53 6.36924e-54 2.8894e-54 1.29401e-54 5.71881e-55 2.4868e-55 1.04552e-55 3.79142e-56 0 